A Gromacs structure file written by ASE 
10380
    11DUM    Ar    1  -0.175  -0.175   0.325  0.0000  0.0000  0.0000
    11DUM    Ar    2  -0.025  -0.025   0.325  0.0000  0.0000  0.0000
    11DUM    Ar    3  -0.025  -0.175   0.475  0.0000  0.0000  0.0000
    11DUM    Ar    4  -0.175  -0.025   0.475  0.0000  0.0000  0.0000
    11DUM    Ar    5   0.125  -0.175   0.325  0.0000  0.0000  0.0000
    11DUM    Ar    6   0.275  -0.025   0.325  0.0000  0.0000  0.0000
    11DUM    Ar    7   0.275  -0.175   0.475  0.0000  0.0000  0.0000
    11DUM    Ar    8   0.125  -0.025   0.475  0.0000  0.0000  0.0000
    11DUM    Ar    9   0.425  -0.175   0.325  0.0000  0.0000  0.0000
    11DUM    Ar   10   0.575  -0.025   0.325  0.0000  0.0000  0.0000
    11DUM    Ar   11   0.575  -0.175   0.475  0.0000  0.0000  0.0000
    11DUM    Ar   12   0.425  -0.025   0.475  0.0000  0.0000  0.0000
    11DUM    Ar   13   0.725  -0.175   0.325  0.0000  0.0000  0.0000
    11DUM    Ar   14   0.875  -0.025   0.325  0.0000  0.0000  0.0000
    11DUM    Ar   15   0.875  -0.175   0.475  0.0000  0.0000  0.0000
    11DUM    Ar   16   0.725  -0.025   0.475  0.0000  0.0000  0.0000
    11DUM    Ar   17   1.025  -0.175   0.325  0.0000  0.0000  0.0000
    11DUM    Ar   18   1.175  -0.025   0.325  0.0000  0.0000  0.0000
    11DUM    Ar   19   1.175  -0.175   0.475  0.0000  0.0000  0.0000
    11DUM    Ar   20   1.025  -0.025   0.475  0.0000  0.0000  0.0000
    11DUM    Ar   21   1.325  -0.175   0.325  0.0000  0.0000  0.0000
    11DUM    Ar   22   1.475  -0.025   0.325  0.0000  0.0000  0.0000
    11DUM    Ar   23   1.475  -0.175   0.475  0.0000  0.0000  0.0000
    11DUM    Ar   24   1.325  -0.025   0.475  0.0000  0.0000  0.0000
    11DUM    Ar   25   1.625  -0.175   0.325  0.0000  0.0000  0.0000
    11DUM    Ar   26   1.775  -0.025   0.325  0.0000  0.0000  0.0000
    11DUM    Ar   27   1.775  -0.175   0.475  0.0000  0.0000  0.0000
    11DUM    Ar   28   1.625  -0.025   0.475  0.0000  0.0000  0.0000
    11DUM    Ar   29   1.925  -0.175   0.325  0.0000  0.0000  0.0000
    11DUM    Ar   30   2.075  -0.025   0.325  0.0000  0.0000  0.0000
    11DUM    Ar   31   2.075  -0.175   0.475  0.0000  0.0000  0.0000
    11DUM    Ar   32   1.925  -0.025   0.475  0.0000  0.0000  0.0000
    11DUM    Ar   33   2.225  -0.175   0.325  0.0000  0.0000  0.0000
    11DUM    Ar   34   2.375  -0.025   0.325  0.0000  0.0000  0.0000
    11DUM    Ar   35   2.375  -0.175   0.475  0.0000  0.0000  0.0000
    11DUM    Ar   36   2.225  -0.025   0.475  0.0000  0.0000  0.0000
    11DUM    Ar   37   2.525  -0.175   0.325  0.0000  0.0000  0.0000
    11DUM    Ar   38   2.675  -0.025   0.325  0.0000  0.0000  0.0000
    11DUM    Ar   39   2.675  -0.175   0.475  0.0000  0.0000  0.0000
    11DUM    Ar   40   2.525  -0.025   0.475  0.0000  0.0000  0.0000
    11DUM    Ar   41   2.825  -0.175   0.325  0.0000  0.0000  0.0000
    11DUM    Ar   42   2.975  -0.025   0.325  0.0000  0.0000  0.0000
    11DUM    Ar   43   2.975  -0.175   0.475  0.0000  0.0000  0.0000
    11DUM    Ar   44   2.825  -0.025   0.475  0.0000  0.0000  0.0000
    11DUM    Ar   45   3.125  -0.175   0.325  0.0000  0.0000  0.0000
    11DUM    Ar   46   3.275  -0.025   0.325  0.0000  0.0000  0.0000
    11DUM    Ar   47   3.275  -0.175   0.475  0.0000  0.0000  0.0000
    11DUM    Ar   48   3.125  -0.025   0.475  0.0000  0.0000  0.0000
    11DUM    Ar   49   3.425  -0.175   0.325  0.0000  0.0000  0.0000
    11DUM    Ar   50   3.575  -0.025   0.325  0.0000  0.0000  0.0000
    11DUM    Ar   51   3.575  -0.175   0.475  0.0000  0.0000  0.0000
    11DUM    Ar   52   3.425  -0.025   0.475  0.0000  0.0000  0.0000
    11DUM    Ar   53   3.725  -0.175   0.325  0.0000  0.0000  0.0000
    11DUM    Ar   54   3.875  -0.025   0.325  0.0000  0.0000  0.0000
    11DUM    Ar   55   3.875  -0.175   0.475  0.0000  0.0000  0.0000
    11DUM    Ar   56   3.725  -0.025   0.475  0.0000  0.0000  0.0000
    11DUM    Ar   57   4.025  -0.175   0.325  0.0000  0.0000  0.0000
    11DUM    Ar   58   4.175  -0.025   0.325  0.0000  0.0000  0.0000
    11DUM    Ar   59   4.175  -0.175   0.475  0.0000  0.0000  0.0000
    11DUM    Ar   60   4.025  -0.025   0.475  0.0000  0.0000  0.0000
    11DUM    Ar   61  -0.175   0.125   0.325  0.0000  0.0000  0.0000
    11DUM    Ar   62  -0.025   0.275   0.325  0.0000  0.0000  0.0000
    11DUM    Ar   63  -0.025   0.125   0.475  0.0000  0.0000  0.0000
    11DUM    Ar   64  -0.175   0.275   0.475  0.0000  0.0000  0.0000
    11DUM    Ar   65   0.125   0.125   0.325  0.0000  0.0000  0.0000
    11DUM    Ar   66   0.275   0.275   0.325  0.0000  0.0000  0.0000
    11DUM    Ar   67   0.275   0.125   0.475  0.0000  0.0000  0.0000
    11DUM    Ar   68   0.125   0.275   0.475  0.0000  0.0000  0.0000
    11DUM    Ar   69   0.425   0.125   0.325  0.0000  0.0000  0.0000
    11DUM    Ar   70   0.575   0.275   0.325  0.0000  0.0000  0.0000
    11DUM    Ar   71   0.575   0.125   0.475  0.0000  0.0000  0.0000
    11DUM    Ar   72   0.425   0.275   0.475  0.0000  0.0000  0.0000
    11DUM    Ar   73   0.725   0.125   0.325  0.0000  0.0000  0.0000
    11DUM    Ar   74   0.875   0.275   0.325  0.0000  0.0000  0.0000
    11DUM    Ar   75   0.875   0.125   0.475  0.0000  0.0000  0.0000
    11DUM    Ar   76   0.725   0.275   0.475  0.0000  0.0000  0.0000
    11DUM    Ar   77   1.025   0.125   0.325  0.0000  0.0000  0.0000
    11DUM    Ar   78   1.175   0.275   0.325  0.0000  0.0000  0.0000
    11DUM    Ar   79   1.175   0.125   0.475  0.0000  0.0000  0.0000
    11DUM    Ar   80   1.025   0.275   0.475  0.0000  0.0000  0.0000
    11DUM    Ar   81   1.325   0.125   0.325  0.0000  0.0000  0.0000
    11DUM    Ar   82   1.475   0.275   0.325  0.0000  0.0000  0.0000
    11DUM    Ar   83   1.475   0.125   0.475  0.0000  0.0000  0.0000
    11DUM    Ar   84   1.325   0.275   0.475  0.0000  0.0000  0.0000
    11DUM    Ar   85   1.625   0.125   0.325  0.0000  0.0000  0.0000
    11DUM    Ar   86   1.775   0.275   0.325  0.0000  0.0000  0.0000
    11DUM    Ar   87   1.775   0.125   0.475  0.0000  0.0000  0.0000
    11DUM    Ar   88   1.625   0.275   0.475  0.0000  0.0000  0.0000
    11DUM    Ar   89   1.925   0.125   0.325  0.0000  0.0000  0.0000
    11DUM    Ar   90   2.075   0.275   0.325  0.0000  0.0000  0.0000
    11DUM    Ar   91   2.075   0.125   0.475  0.0000  0.0000  0.0000
    11DUM    Ar   92   1.925   0.275   0.475  0.0000  0.0000  0.0000
    11DUM    Ar   93   2.225   0.125   0.325  0.0000  0.0000  0.0000
    11DUM    Ar   94   2.375   0.275   0.325  0.0000  0.0000  0.0000
    11DUM    Ar   95   2.375   0.125   0.475  0.0000  0.0000  0.0000
    11DUM    Ar   96   2.225   0.275   0.475  0.0000  0.0000  0.0000
    11DUM    Ar   97   2.525   0.125   0.325  0.0000  0.0000  0.0000
    11DUM    Ar   98   2.675   0.275   0.325  0.0000  0.0000  0.0000
    11DUM    Ar   99   2.675   0.125   0.475  0.0000  0.0000  0.0000
    11DUM    Ar  100   2.525   0.275   0.475  0.0000  0.0000  0.0000
    11DUM    Ar  101   2.825   0.125   0.325  0.0000  0.0000  0.0000
    11DUM    Ar  102   2.975   0.275   0.325  0.0000  0.0000  0.0000
    11DUM    Ar  103   2.975   0.125   0.475  0.0000  0.0000  0.0000
    11DUM    Ar  104   2.825   0.275   0.475  0.0000  0.0000  0.0000
    11DUM    Ar  105   3.125   0.125   0.325  0.0000  0.0000  0.0000
    11DUM    Ar  106   3.275   0.275   0.325  0.0000  0.0000  0.0000
    11DUM    Ar  107   3.275   0.125   0.475  0.0000  0.0000  0.0000
    11DUM    Ar  108   3.125   0.275   0.475  0.0000  0.0000  0.0000
    11DUM    Ar  109   3.425   0.125   0.325  0.0000  0.0000  0.0000
    11DUM    Ar  110   3.575   0.275   0.325  0.0000  0.0000  0.0000
    11DUM    Ar  111   3.575   0.125   0.475  0.0000  0.0000  0.0000
    11DUM    Ar  112   3.425   0.275   0.475  0.0000  0.0000  0.0000
    11DUM    Ar  113   3.725   0.125   0.325  0.0000  0.0000  0.0000
    11DUM    Ar  114   3.875   0.275   0.325  0.0000  0.0000  0.0000
    11DUM    Ar  115   3.875   0.125   0.475  0.0000  0.0000  0.0000
    11DUM    Ar  116   3.725   0.275   0.475  0.0000  0.0000  0.0000
    11DUM    Ar  117   4.025   0.125   0.325  0.0000  0.0000  0.0000
    11DUM    Ar  118   4.175   0.275   0.325  0.0000  0.0000  0.0000
    11DUM    Ar  119   4.175   0.125   0.475  0.0000  0.0000  0.0000
    11DUM    Ar  120   4.025   0.275   0.475  0.0000  0.0000  0.0000
    11DUM    Ar  121  -0.175   0.425   0.325  0.0000  0.0000  0.0000
    11DUM    Ar  122  -0.025   0.575   0.325  0.0000  0.0000  0.0000
    11DUM    Ar  123  -0.025   0.425   0.475  0.0000  0.0000  0.0000
    11DUM    Ar  124  -0.175   0.575   0.475  0.0000  0.0000  0.0000
    11DUM    Ar  125   0.125   0.425   0.325  0.0000  0.0000  0.0000
    11DUM    Ar  126   0.275   0.575   0.325  0.0000  0.0000  0.0000
    11DUM    Ar  127   0.275   0.425   0.475  0.0000  0.0000  0.0000
    11DUM    Ar  128   0.125   0.575   0.475  0.0000  0.0000  0.0000
    11DUM    Ar  129   0.425   0.425   0.325  0.0000  0.0000  0.0000
    11DUM    Ar  130   0.575   0.425   0.475  0.0000  0.0000  0.0000
    11DUM    Ar  131   0.425   0.575   0.475  0.0000  0.0000  0.0000
    11DUM    Ar  132   0.725   0.425   0.325  0.0000  0.0000  0.0000
    11DUM    Ar  133   1.325   0.425   0.325  0.0000  0.0000  0.0000
    11DUM    Ar  134   1.475   0.575   0.325  0.0000  0.0000  0.0000
    11DUM    Ar  135   1.475   0.425   0.475  0.0000  0.0000  0.0000
    11DUM    Ar  136   1.625   0.425   0.325  0.0000  0.0000  0.0000
    11DUM    Ar  137   1.775   0.575   0.325  0.0000  0.0000  0.0000
    11DUM    Ar  138   1.775   0.425   0.475  0.0000  0.0000  0.0000
    11DUM    Ar  139   1.625   0.575   0.475  0.0000  0.0000  0.0000
    11DUM    Ar  140   1.925   0.425   0.325  0.0000  0.0000  0.0000
    11DUM    Ar  141   2.075   0.575   0.325  0.0000  0.0000  0.0000
    11DUM    Ar  142   2.075   0.425   0.475  0.0000  0.0000  0.0000
    11DUM    Ar  143   1.925   0.575   0.475  0.0000  0.0000  0.0000
    11DUM    Ar  144   2.225   0.425   0.325  0.0000  0.0000  0.0000
    11DUM    Ar  145   2.375   0.575   0.325  0.0000  0.0000  0.0000
    11DUM    Ar  146   2.375   0.425   0.475  0.0000  0.0000  0.0000
    11DUM    Ar  147   2.225   0.575   0.475  0.0000  0.0000  0.0000
    11DUM    Ar  148   2.525   0.425   0.325  0.0000  0.0000  0.0000
    11DUM    Ar  149   2.675   0.425   0.475  0.0000  0.0000  0.0000
    11DUM    Ar  150   2.525   0.575   0.475  0.0000  0.0000  0.0000
    11DUM    Ar  151   3.275   0.425   0.475  0.0000  0.0000  0.0000
    11DUM    Ar  152   3.425   0.425   0.325  0.0000  0.0000  0.0000
    11DUM    Ar  153   3.575   0.575   0.325  0.0000  0.0000  0.0000
    11DUM    Ar  154   3.575   0.425   0.475  0.0000  0.0000  0.0000
    11DUM    Ar  155   3.725   0.425   0.325  0.0000  0.0000  0.0000
    11DUM    Ar  156   3.875   0.575   0.325  0.0000  0.0000  0.0000
    11DUM    Ar  157   3.875   0.425   0.475  0.0000  0.0000  0.0000
    11DUM    Ar  158   3.725   0.575   0.475  0.0000  0.0000  0.0000
    11DUM    Ar  159   4.025   0.425   0.325  0.0000  0.0000  0.0000
    11DUM    Ar  160   4.175   0.575   0.325  0.0000  0.0000  0.0000
    11DUM    Ar  161   4.175   0.425   0.475  0.0000  0.0000  0.0000
    11DUM    Ar  162   4.025   0.575   0.475  0.0000  0.0000  0.0000
    11DUM    Ar  163  -0.175   0.725   0.325  0.0000  0.0000  0.0000
    11DUM    Ar  164  -0.025   0.875   0.325  0.0000  0.0000  0.0000
    11DUM    Ar  165  -0.025   0.725   0.475  0.0000  0.0000  0.0000
    11DUM    Ar  166  -0.175   0.875   0.475  0.0000  0.0000  0.0000
    11DUM    Ar  167   0.125   0.725   0.325  0.0000  0.0000  0.0000
    11DUM    Ar  168   0.275   0.875   0.325  0.0000  0.0000  0.0000
    11DUM    Ar  169   0.275   0.725   0.475  0.0000  0.0000  0.0000
    11DUM    Ar  170   0.125   0.875   0.475  0.0000  0.0000  0.0000
    11DUM    Ar  171   0.425   0.725   0.325  0.0000  0.0000  0.0000
    11DUM    Ar  172   1.625   0.725   0.325  0.0000  0.0000  0.0000
    11DUM    Ar  173   1.775   0.875   0.325  0.0000  0.0000  0.0000
    11DUM    Ar  174   1.775   0.725   0.475  0.0000  0.0000  0.0000
    11DUM    Ar  175   1.625   0.875   0.475  0.0000  0.0000  0.0000
    11DUM    Ar  176   1.925   0.725   0.325  0.0000  0.0000  0.0000
    11DUM    Ar  177   2.075   0.875   0.325  0.0000  0.0000  0.0000
    11DUM    Ar  178   2.075   0.725   0.475  0.0000  0.0000  0.0000
    11DUM    Ar  179   1.925   0.875   0.475  0.0000  0.0000  0.0000
    11DUM    Ar  180   2.225   0.725   0.325  0.0000  0.0000  0.0000
    11DUM    Ar  181   2.375   0.875   0.325  0.0000  0.0000  0.0000
    11DUM    Ar  182   2.375   0.725   0.475  0.0000  0.0000  0.0000
    11DUM    Ar  183   2.225   0.875   0.475  0.0000  0.0000  0.0000
    11DUM    Ar  184   3.575   0.725   0.475  0.0000  0.0000  0.0000
    11DUM    Ar  185   3.725   0.725   0.325  0.0000  0.0000  0.0000
    11DUM    Ar  186   3.875   0.875   0.325  0.0000  0.0000  0.0000
    11DUM    Ar  187   3.875   0.725   0.475  0.0000  0.0000  0.0000
    11DUM    Ar  188   3.725   0.875   0.475  0.0000  0.0000  0.0000
    11DUM    Ar  189   4.025   0.725   0.325  0.0000  0.0000  0.0000
    11DUM    Ar  190   4.175   0.875   0.325  0.0000  0.0000  0.0000
    11DUM    Ar  191   4.175   0.725   0.475  0.0000  0.0000  0.0000
    11DUM    Ar  192   4.025   0.875   0.475  0.0000  0.0000  0.0000
    11DUM    Ar  193  -0.175   1.025   0.325  0.0000  0.0000  0.0000
    11DUM    Ar  194  -0.025   1.175   0.325  0.0000  0.0000  0.0000
    11DUM    Ar  195  -0.025   1.025   0.475  0.0000  0.0000  0.0000
    11DUM    Ar  196  -0.175   1.175   0.475  0.0000  0.0000  0.0000
    11DUM    Ar  197   0.125   1.025   0.325  0.0000  0.0000  0.0000
    11DUM    Ar  198   0.275   1.175   0.325  0.0000  0.0000  0.0000
    11DUM    Ar  199   0.275   1.025   0.475  0.0000  0.0000  0.0000
    11DUM    Ar  200   0.125   1.175   0.475  0.0000  0.0000  0.0000
    11DUM    Ar  201   1.625   1.025   0.325  0.0000  0.0000  0.0000
    11DUM    Ar  202   1.775   1.175   0.325  0.0000  0.0000  0.0000
    11DUM    Ar  203   1.775   1.025   0.475  0.0000  0.0000  0.0000
    11DUM    Ar  204   1.625   1.175   0.475  0.0000  0.0000  0.0000
    11DUM    Ar  205   1.925   1.025   0.325  0.0000  0.0000  0.0000
    11DUM    Ar  206   2.075   1.175   0.325  0.0000  0.0000  0.0000
    11DUM    Ar  207   2.075   1.025   0.475  0.0000  0.0000  0.0000
    11DUM    Ar  208   1.925   1.175   0.475  0.0000  0.0000  0.0000
    11DUM    Ar  209   2.225   1.025   0.325  0.0000  0.0000  0.0000
    11DUM    Ar  210   2.375   1.175   0.325  0.0000  0.0000  0.0000
    11DUM    Ar  211   2.375   1.025   0.475  0.0000  0.0000  0.0000
    11DUM    Ar  212   2.225   1.175   0.475  0.0000  0.0000  0.0000
    11DUM    Ar  213   3.725   1.025   0.325  0.0000  0.0000  0.0000
    11DUM    Ar  214   3.875   1.175   0.325  0.0000  0.0000  0.0000
    11DUM    Ar  215   3.875   1.025   0.475  0.0000  0.0000  0.0000
    11DUM    Ar  216   3.725   1.175   0.475  0.0000  0.0000  0.0000
    11DUM    Ar  217   4.025   1.025   0.325  0.0000  0.0000  0.0000
    11DUM    Ar  218   4.175   1.175   0.325  0.0000  0.0000  0.0000
    11DUM    Ar  219   4.175   1.025   0.475  0.0000  0.0000  0.0000
    11DUM    Ar  220   4.025   1.175   0.475  0.0000  0.0000  0.0000
    11DUM    Ar  221  -0.175   1.325   0.325  0.0000  0.0000  0.0000
    11DUM    Ar  222  -0.025   1.475   0.325  0.0000  0.0000  0.0000
    11DUM    Ar  223  -0.025   1.325   0.475  0.0000  0.0000  0.0000
    11DUM    Ar  224  -0.175   1.475   0.475  0.0000  0.0000  0.0000
    11DUM    Ar  225   0.125   1.325   0.325  0.0000  0.0000  0.0000
    11DUM    Ar  226   0.275   1.475   0.325  0.0000  0.0000  0.0000
    11DUM    Ar  227   0.275   1.325   0.475  0.0000  0.0000  0.0000
    11DUM    Ar  228   0.125   1.475   0.475  0.0000  0.0000  0.0000
    11DUM    Ar  229   0.425   1.325   0.325  0.0000  0.0000  0.0000
    11DUM    Ar  230   0.575   1.475   0.325  0.0000  0.0000  0.0000
    11DUM    Ar  231   0.425   1.475   0.475  0.0000  0.0000  0.0000
    11DUM    Ar  232   1.475   1.475   0.325  0.0000  0.0000  0.0000
    11DUM    Ar  233   1.625   1.325   0.325  0.0000  0.0000  0.0000
    11DUM    Ar  234   1.775   1.475   0.325  0.0000  0.0000  0.0000
    11DUM    Ar  235   1.775   1.325   0.475  0.0000  0.0000  0.0000
    11DUM    Ar  236   1.625   1.475   0.475  0.0000  0.0000  0.0000
    11DUM    Ar  237   1.925   1.325   0.325  0.0000  0.0000  0.0000
    11DUM    Ar  238   2.075   1.475   0.325  0.0000  0.0000  0.0000
    11DUM    Ar  239   2.075   1.325   0.475  0.0000  0.0000  0.0000
    11DUM    Ar  240   1.925   1.475   0.475  0.0000  0.0000  0.0000
    11DUM    Ar  241   2.225   1.325   0.325  0.0000  0.0000  0.0000
    11DUM    Ar  242   2.375   1.475   0.325  0.0000  0.0000  0.0000
    11DUM    Ar  243   2.375   1.325   0.475  0.0000  0.0000  0.0000
    11DUM    Ar  244   2.225   1.475   0.475  0.0000  0.0000  0.0000
    11DUM    Ar  245   2.525   1.475   0.475  0.0000  0.0000  0.0000
    11DUM    Ar  246   3.575   1.475   0.325  0.0000  0.0000  0.0000
    11DUM    Ar  247   3.575   1.325   0.475  0.0000  0.0000  0.0000
    11DUM    Ar  248   3.425   1.475   0.475  0.0000  0.0000  0.0000
    11DUM    Ar  249   3.725   1.325   0.325  0.0000  0.0000  0.0000
    11DUM    Ar  250   3.875   1.475   0.325  0.0000  0.0000  0.0000
    11DUM    Ar  251   3.875   1.325   0.475  0.0000  0.0000  0.0000
    11DUM    Ar  252   3.725   1.475   0.475  0.0000  0.0000  0.0000
    11DUM    Ar  253   4.025   1.325   0.325  0.0000  0.0000  0.0000
    11DUM    Ar  254   4.175   1.475   0.325  0.0000  0.0000  0.0000
    11DUM    Ar  255   4.175   1.325   0.475  0.0000  0.0000  0.0000
    11DUM    Ar  256   4.025   1.475   0.475  0.0000  0.0000  0.0000
    11DUM    Ar  257  -0.175   1.625   0.325  0.0000  0.0000  0.0000
    11DUM    Ar  258  -0.025   1.775   0.325  0.0000  0.0000  0.0000
    11DUM    Ar  259  -0.025   1.625   0.475  0.0000  0.0000  0.0000
    11DUM    Ar  260  -0.175   1.775   0.475  0.0000  0.0000  0.0000
    11DUM    Ar  261   0.125   1.625   0.325  0.0000  0.0000  0.0000
    11DUM    Ar  262   0.275   1.775   0.325  0.0000  0.0000  0.0000
    11DUM    Ar  263   0.275   1.625   0.475  0.0000  0.0000  0.0000
    11DUM    Ar  264   0.125   1.775   0.475  0.0000  0.0000  0.0000
    11DUM    Ar  265   0.425   1.625   0.325  0.0000  0.0000  0.0000
    11DUM    Ar  266   0.575   1.775   0.325  0.0000  0.0000  0.0000
    11DUM    Ar  267   0.575   1.625   0.475  0.0000  0.0000  0.0000
    11DUM    Ar  268   0.425   1.775   0.475  0.0000  0.0000  0.0000
    11DUM    Ar  269   0.725   1.625   0.325  0.0000  0.0000  0.0000
    11DUM    Ar  270   0.875   1.775   0.325  0.0000  0.0000  0.0000
    11DUM    Ar  271   0.875   1.625   0.475  0.0000  0.0000  0.0000
    11DUM    Ar  272   0.725   1.775   0.475  0.0000  0.0000  0.0000
    11DUM    Ar  273   1.025   1.625   0.325  0.0000  0.0000  0.0000
    11DUM    Ar  274   1.175   1.775   0.325  0.0000  0.0000  0.0000
    11DUM    Ar  275   1.175   1.625   0.475  0.0000  0.0000  0.0000
    11DUM    Ar  276   1.025   1.775   0.475  0.0000  0.0000  0.0000
    11DUM    Ar  277   1.325   1.625   0.325  0.0000  0.0000  0.0000
    11DUM    Ar  278   1.475   1.775   0.325  0.0000  0.0000  0.0000
    11DUM    Ar  279   1.475   1.625   0.475  0.0000  0.0000  0.0000
    11DUM    Ar  280   1.325   1.775   0.475  0.0000  0.0000  0.0000
    11DUM    Ar  281   1.625   1.625   0.325  0.0000  0.0000  0.0000
    11DUM    Ar  282   1.775   1.775   0.325  0.0000  0.0000  0.0000
    11DUM    Ar  283   1.775   1.625   0.475  0.0000  0.0000  0.0000
    11DUM    Ar  284   1.625   1.775   0.475  0.0000  0.0000  0.0000
    11DUM    Ar  285   1.925   1.625   0.325  0.0000  0.0000  0.0000
    11DUM    Ar  286   2.075   1.775   0.325  0.0000  0.0000  0.0000
    11DUM    Ar  287   2.075   1.625   0.475  0.0000  0.0000  0.0000
    11DUM    Ar  288   1.925   1.775   0.475  0.0000  0.0000  0.0000
    11DUM    Ar  289   2.225   1.625   0.325  0.0000  0.0000  0.0000
    11DUM    Ar  290   2.375   1.775   0.325  0.0000  0.0000  0.0000
    11DUM    Ar  291   2.375   1.625   0.475  0.0000  0.0000  0.0000
    11DUM    Ar  292   2.225   1.775   0.475  0.0000  0.0000  0.0000
    11DUM    Ar  293   2.525   1.625   0.325  0.0000  0.0000  0.0000
    11DUM    Ar  294   2.675   1.775   0.325  0.0000  0.0000  0.0000
    11DUM    Ar  295   2.675   1.625   0.475  0.0000  0.0000  0.0000
    11DUM    Ar  296   2.525   1.775   0.475  0.0000  0.0000  0.0000
    11DUM    Ar  297   2.825   1.625   0.325  0.0000  0.0000  0.0000
    11DUM    Ar  298   2.975   1.775   0.325  0.0000  0.0000  0.0000
    11DUM    Ar  299   2.975   1.625   0.475  0.0000  0.0000  0.0000
    11DUM    Ar  300   2.825   1.775   0.475  0.0000  0.0000  0.0000
    11DUM    Ar  301   3.125   1.625   0.325  0.0000  0.0000  0.0000
    11DUM    Ar  302   3.275   1.775   0.325  0.0000  0.0000  0.0000
    11DUM    Ar  303   3.275   1.625   0.475  0.0000  0.0000  0.0000
    11DUM    Ar  304   3.125   1.775   0.475  0.0000  0.0000  0.0000
    11DUM    Ar  305   3.425   1.625   0.325  0.0000  0.0000  0.0000
    11DUM    Ar  306   3.575   1.775   0.325  0.0000  0.0000  0.0000
    11DUM    Ar  307   3.575   1.625   0.475  0.0000  0.0000  0.0000
    11DUM    Ar  308   3.425   1.775   0.475  0.0000  0.0000  0.0000
    11DUM    Ar  309   3.725   1.625   0.325  0.0000  0.0000  0.0000
    11DUM    Ar  310   3.875   1.775   0.325  0.0000  0.0000  0.0000
    11DUM    Ar  311   3.875   1.625   0.475  0.0000  0.0000  0.0000
    11DUM    Ar  312   3.725   1.775   0.475  0.0000  0.0000  0.0000
    11DUM    Ar  313   4.025   1.625   0.325  0.0000  0.0000  0.0000
    11DUM    Ar  314   4.175   1.775   0.325  0.0000  0.0000  0.0000
    11DUM    Ar  315   4.175   1.625   0.475  0.0000  0.0000  0.0000
    11DUM    Ar  316   4.025   1.775   0.475  0.0000  0.0000  0.0000
    11DUM    Ar  317  -0.175   1.925   0.325  0.0000  0.0000  0.0000
    11DUM    Ar  318  -0.025   2.075   0.325  0.0000  0.0000  0.0000
    11DUM    Ar  319  -0.025   1.925   0.475  0.0000  0.0000  0.0000
    11DUM    Ar  320  -0.175   2.075   0.475  0.0000  0.0000  0.0000
    11DUM    Ar  321   0.125   1.925   0.325  0.0000  0.0000  0.0000
    11DUM    Ar  322   0.275   2.075   0.325  0.0000  0.0000  0.0000
    11DUM    Ar  323   0.275   1.925   0.475  0.0000  0.0000  0.0000
    11DUM    Ar  324   0.125   2.075   0.475  0.0000  0.0000  0.0000
    11DUM    Ar  325   0.425   1.925   0.325  0.0000  0.0000  0.0000
    11DUM    Ar  326   0.575   2.075   0.325  0.0000  0.0000  0.0000
    11DUM    Ar  327   0.575   1.925   0.475  0.0000  0.0000  0.0000
    11DUM    Ar  328   0.425   2.075   0.475  0.0000  0.0000  0.0000
    11DUM    Ar  329   0.725   1.925   0.325  0.0000  0.0000  0.0000
    11DUM    Ar  330   0.875   2.075   0.325  0.0000  0.0000  0.0000
    11DUM    Ar  331   0.875   1.925   0.475  0.0000  0.0000  0.0000
    11DUM    Ar  332   0.725   2.075   0.475  0.0000  0.0000  0.0000
    11DUM    Ar  333   1.025   1.925   0.325  0.0000  0.0000  0.0000
    11DUM    Ar  334   1.175   2.075   0.325  0.0000  0.0000  0.0000
    11DUM    Ar  335   1.175   1.925   0.475  0.0000  0.0000  0.0000
    11DUM    Ar  336   1.025   2.075   0.475  0.0000  0.0000  0.0000
    11DUM    Ar  337   1.325   1.925   0.325  0.0000  0.0000  0.0000
    11DUM    Ar  338   1.475   2.075   0.325  0.0000  0.0000  0.0000
    11DUM    Ar  339   1.475   1.925   0.475  0.0000  0.0000  0.0000
    11DUM    Ar  340   1.325   2.075   0.475  0.0000  0.0000  0.0000
    11DUM    Ar  341   1.625   1.925   0.325  0.0000  0.0000  0.0000
    11DUM    Ar  342   1.775   2.075   0.325  0.0000  0.0000  0.0000
    11DUM    Ar  343   1.775   1.925   0.475  0.0000  0.0000  0.0000
    11DUM    Ar  344   1.625   2.075   0.475  0.0000  0.0000  0.0000
    11DUM    Ar  345   1.925   1.925   0.325  0.0000  0.0000  0.0000
    11DUM    Ar  346   2.075   2.075   0.325  0.0000  0.0000  0.0000
    11DUM    Ar  347   2.075   1.925   0.475  0.0000  0.0000  0.0000
    11DUM    Ar  348   1.925   2.075   0.475  0.0000  0.0000  0.0000
    11DUM    Ar  349   2.225   1.925   0.325  0.0000  0.0000  0.0000
    11DUM    Ar  350   2.375   2.075   0.325  0.0000  0.0000  0.0000
    11DUM    Ar  351   2.375   1.925   0.475  0.0000  0.0000  0.0000
    11DUM    Ar  352   2.225   2.075   0.475  0.0000  0.0000  0.0000
    11DUM    Ar  353   2.525   1.925   0.325  0.0000  0.0000  0.0000
    11DUM    Ar  354   2.675   2.075   0.325  0.0000  0.0000  0.0000
    11DUM    Ar  355   2.675   1.925   0.475  0.0000  0.0000  0.0000
    11DUM    Ar  356   2.525   2.075   0.475  0.0000  0.0000  0.0000
    11DUM    Ar  357   2.825   1.925   0.325  0.0000  0.0000  0.0000
    11DUM    Ar  358   2.975   2.075   0.325  0.0000  0.0000  0.0000
    11DUM    Ar  359   2.975   1.925   0.475  0.0000  0.0000  0.0000
    11DUM    Ar  360   2.825   2.075   0.475  0.0000  0.0000  0.0000
    11DUM    Ar  361   3.125   1.925   0.325  0.0000  0.0000  0.0000
    11DUM    Ar  362   3.275   2.075   0.325  0.0000  0.0000  0.0000
    11DUM    Ar  363   3.275   1.925   0.475  0.0000  0.0000  0.0000
    11DUM    Ar  364   3.125   2.075   0.475  0.0000  0.0000  0.0000
    11DUM    Ar  365   3.425   1.925   0.325  0.0000  0.0000  0.0000
    11DUM    Ar  366   3.575   2.075   0.325  0.0000  0.0000  0.0000
    11DUM    Ar  367   3.575   1.925   0.475  0.0000  0.0000  0.0000
    11DUM    Ar  368   3.425   2.075   0.475  0.0000  0.0000  0.0000
    11DUM    Ar  369   3.725   1.925   0.325  0.0000  0.0000  0.0000
    11DUM    Ar  370   3.875   2.075   0.325  0.0000  0.0000  0.0000
    11DUM    Ar  371   3.875   1.925   0.475  0.0000  0.0000  0.0000
    11DUM    Ar  372   3.725   2.075   0.475  0.0000  0.0000  0.0000
    11DUM    Ar  373   4.025   1.925   0.325  0.0000  0.0000  0.0000
    11DUM    Ar  374   4.175   2.075   0.325  0.0000  0.0000  0.0000
    11DUM    Ar  375   4.175   1.925   0.475  0.0000  0.0000  0.0000
    11DUM    Ar  376   4.025   2.075   0.475  0.0000  0.0000  0.0000
    11DUM    Ar  377  -0.175   2.225   0.325  0.0000  0.0000  0.0000
    11DUM    Ar  378  -0.025   2.375   0.325  0.0000  0.0000  0.0000
    11DUM    Ar  379  -0.025   2.225   0.475  0.0000  0.0000  0.0000
    11DUM    Ar  380  -0.175   2.375   0.475  0.0000  0.0000  0.0000
    11DUM    Ar  381   0.125   2.225   0.325  0.0000  0.0000  0.0000
    11DUM    Ar  382   0.275   2.375   0.325  0.0000  0.0000  0.0000
    11DUM    Ar  383   0.275   2.225   0.475  0.0000  0.0000  0.0000
    11DUM    Ar  384   0.125   2.375   0.475  0.0000  0.0000  0.0000
    11DUM    Ar  385   0.425   2.225   0.325  0.0000  0.0000  0.0000
    11DUM    Ar  386   0.575   2.375   0.325  0.0000  0.0000  0.0000
    11DUM    Ar  387   0.575   2.225   0.475  0.0000  0.0000  0.0000
    11DUM    Ar  388   0.425   2.375   0.475  0.0000  0.0000  0.0000
    11DUM    Ar  389   0.725   2.225   0.325  0.0000  0.0000  0.0000
    11DUM    Ar  390   0.875   2.375   0.325  0.0000  0.0000  0.0000
    11DUM    Ar  391   0.875   2.225   0.475  0.0000  0.0000  0.0000
    11DUM    Ar  392   0.725   2.375   0.475  0.0000  0.0000  0.0000
    11DUM    Ar  393   1.025   2.225   0.325  0.0000  0.0000  0.0000
    11DUM    Ar  394   1.175   2.375   0.325  0.0000  0.0000  0.0000
    11DUM    Ar  395   1.175   2.225   0.475  0.0000  0.0000  0.0000
    11DUM    Ar  396   1.025   2.375   0.475  0.0000  0.0000  0.0000
    11DUM    Ar  397   1.325   2.225   0.325  0.0000  0.0000  0.0000
    11DUM    Ar  398   1.475   2.375   0.325  0.0000  0.0000  0.0000
    11DUM    Ar  399   1.475   2.225   0.475  0.0000  0.0000  0.0000
    11DUM    Ar  400   1.325   2.375   0.475  0.0000  0.0000  0.0000
    11DUM    Ar  401   1.625   2.225   0.325  0.0000  0.0000  0.0000
    11DUM    Ar  402   1.775   2.375   0.325  0.0000  0.0000  0.0000
    11DUM    Ar  403   1.775   2.225   0.475  0.0000  0.0000  0.0000
    11DUM    Ar  404   1.625   2.375   0.475  0.0000  0.0000  0.0000
    11DUM    Ar  405   1.925   2.225   0.325  0.0000  0.0000  0.0000
    11DUM    Ar  406   2.075   2.375   0.325  0.0000  0.0000  0.0000
    11DUM    Ar  407   2.075   2.225   0.475  0.0000  0.0000  0.0000
    11DUM    Ar  408   1.925   2.375   0.475  0.0000  0.0000  0.0000
    11DUM    Ar  409   2.225   2.225   0.325  0.0000  0.0000  0.0000
    11DUM    Ar  410   2.375   2.375   0.325  0.0000  0.0000  0.0000
    11DUM    Ar  411   2.375   2.225   0.475  0.0000  0.0000  0.0000
    11DUM    Ar  412   2.225   2.375   0.475  0.0000  0.0000  0.0000
    11DUM    Ar  413   2.525   2.225   0.325  0.0000  0.0000  0.0000
    11DUM    Ar  414   2.675   2.375   0.325  0.0000  0.0000  0.0000
    11DUM    Ar  415   2.675   2.225   0.475  0.0000  0.0000  0.0000
    11DUM    Ar  416   2.525   2.375   0.475  0.0000  0.0000  0.0000
    11DUM    Ar  417   2.825   2.225   0.325  0.0000  0.0000  0.0000
    11DUM    Ar  418   2.975   2.375   0.325  0.0000  0.0000  0.0000
    11DUM    Ar  419   2.975   2.225   0.475  0.0000  0.0000  0.0000
    11DUM    Ar  420   2.825   2.375   0.475  0.0000  0.0000  0.0000
    11DUM    Ar  421   3.125   2.225   0.325  0.0000  0.0000  0.0000
    11DUM    Ar  422   3.275   2.375   0.325  0.0000  0.0000  0.0000
    11DUM    Ar  423   3.275   2.225   0.475  0.0000  0.0000  0.0000
    11DUM    Ar  424   3.125   2.375   0.475  0.0000  0.0000  0.0000
    11DUM    Ar  425   3.425   2.225   0.325  0.0000  0.0000  0.0000
    11DUM    Ar  426   3.575   2.375   0.325  0.0000  0.0000  0.0000
    11DUM    Ar  427   3.575   2.225   0.475  0.0000  0.0000  0.0000
    11DUM    Ar  428   3.425   2.375   0.475  0.0000  0.0000  0.0000
    11DUM    Ar  429   3.725   2.225   0.325  0.0000  0.0000  0.0000
    11DUM    Ar  430   3.875   2.375   0.325  0.0000  0.0000  0.0000
    11DUM    Ar  431   3.875   2.225   0.475  0.0000  0.0000  0.0000
    11DUM    Ar  432   3.725   2.375   0.475  0.0000  0.0000  0.0000
    11DUM    Ar  433   4.025   2.225   0.325  0.0000  0.0000  0.0000
    11DUM    Ar  434   4.175   2.375   0.325  0.0000  0.0000  0.0000
    11DUM    Ar  435   4.175   2.225   0.475  0.0000  0.0000  0.0000
    11DUM    Ar  436   4.025   2.375   0.475  0.0000  0.0000  0.0000
    11DUM    Ar  437  -0.175   2.525   0.325  0.0000  0.0000  0.0000
    11DUM    Ar  438  -0.025   2.675   0.325  0.0000  0.0000  0.0000
    11DUM    Ar  439  -0.025   2.525   0.475  0.0000  0.0000  0.0000
    11DUM    Ar  440  -0.175   2.675   0.475  0.0000  0.0000  0.0000
    11DUM    Ar  441   0.125   2.525   0.325  0.0000  0.0000  0.0000
    11DUM    Ar  442   0.275   2.675   0.325  0.0000  0.0000  0.0000
    11DUM    Ar  443   0.275   2.525   0.475  0.0000  0.0000  0.0000
    11DUM    Ar  444   0.125   2.675   0.475  0.0000  0.0000  0.0000
    11DUM    Ar  445   0.425   2.525   0.325  0.0000  0.0000  0.0000
    11DUM    Ar  446   0.575   2.525   0.475  0.0000  0.0000  0.0000
    11DUM    Ar  447   0.425   2.675   0.475  0.0000  0.0000  0.0000
    11DUM    Ar  448   1.475   2.525   0.475  0.0000  0.0000  0.0000
    11DUM    Ar  449   1.625   2.525   0.325  0.0000  0.0000  0.0000
    11DUM    Ar  450   1.775   2.675   0.325  0.0000  0.0000  0.0000
    11DUM    Ar  451   1.775   2.525   0.475  0.0000  0.0000  0.0000
    11DUM    Ar  452   1.625   2.675   0.475  0.0000  0.0000  0.0000
    11DUM    Ar  453   1.925   2.525   0.325  0.0000  0.0000  0.0000
    11DUM    Ar  454   2.075   2.675   0.325  0.0000  0.0000  0.0000
    11DUM    Ar  455   2.075   2.525   0.475  0.0000  0.0000  0.0000
    11DUM    Ar  456   1.925   2.675   0.475  0.0000  0.0000  0.0000
    11DUM    Ar  457   2.225   2.525   0.325  0.0000  0.0000  0.0000
    11DUM    Ar  458   2.375   2.675   0.325  0.0000  0.0000  0.0000
    11DUM    Ar  459   2.375   2.525   0.475  0.0000  0.0000  0.0000
    11DUM    Ar  460   2.225   2.675   0.475  0.0000  0.0000  0.0000
    11DUM    Ar  461   2.525   2.525   0.325  0.0000  0.0000  0.0000
    11DUM    Ar  462   3.425   2.525   0.325  0.0000  0.0000  0.0000
    11DUM    Ar  463   3.575   2.675   0.325  0.0000  0.0000  0.0000
    11DUM    Ar  464   3.575   2.525   0.475  0.0000  0.0000  0.0000
    11DUM    Ar  465   3.725   2.525   0.325  0.0000  0.0000  0.0000
    11DUM    Ar  466   3.875   2.675   0.325  0.0000  0.0000  0.0000
    11DUM    Ar  467   3.875   2.525   0.475  0.0000  0.0000  0.0000
    11DUM    Ar  468   3.725   2.675   0.475  0.0000  0.0000  0.0000
    11DUM    Ar  469   4.025   2.525   0.325  0.0000  0.0000  0.0000
    11DUM    Ar  470   4.175   2.675   0.325  0.0000  0.0000  0.0000
    11DUM    Ar  471   4.175   2.525   0.475  0.0000  0.0000  0.0000
    11DUM    Ar  472   4.025   2.675   0.475  0.0000  0.0000  0.0000
    11DUM    Ar  473  -0.175   2.825   0.325  0.0000  0.0000  0.0000
    11DUM    Ar  474  -0.025   2.975   0.325  0.0000  0.0000  0.0000
    11DUM    Ar  475  -0.025   2.825   0.475  0.0000  0.0000  0.0000
    11DUM    Ar  476  -0.175   2.975   0.475  0.0000  0.0000  0.0000
    11DUM    Ar  477   0.125   2.825   0.325  0.0000  0.0000  0.0000
    11DUM    Ar  478   0.275   2.975   0.325  0.0000  0.0000  0.0000
    11DUM    Ar  479   0.275   2.825   0.475  0.0000  0.0000  0.0000
    11DUM    Ar  480   0.125   2.975   0.475  0.0000  0.0000  0.0000
    11DUM    Ar  481   1.625   2.825   0.325  0.0000  0.0000  0.0000
    11DUM    Ar  482   1.775   2.975   0.325  0.0000  0.0000  0.0000
    11DUM    Ar  483   1.775   2.825   0.475  0.0000  0.0000  0.0000
    11DUM    Ar  484   1.625   2.975   0.475  0.0000  0.0000  0.0000
    11DUM    Ar  485   1.925   2.825   0.325  0.0000  0.0000  0.0000
    11DUM    Ar  486   2.075   2.975   0.325  0.0000  0.0000  0.0000
    11DUM    Ar  487   2.075   2.825   0.475  0.0000  0.0000  0.0000
    11DUM    Ar  488   1.925   2.975   0.475  0.0000  0.0000  0.0000
    11DUM    Ar  489   2.225   2.825   0.325  0.0000  0.0000  0.0000
    11DUM    Ar  490   2.375   2.975   0.325  0.0000  0.0000  0.0000
    11DUM    Ar  491   2.375   2.825   0.475  0.0000  0.0000  0.0000
    11DUM    Ar  492   2.225   2.975   0.475  0.0000  0.0000  0.0000
    11DUM    Ar  493   3.725   2.825   0.325  0.0000  0.0000  0.0000
    11DUM    Ar  494   3.875   2.975   0.325  0.0000  0.0000  0.0000
    11DUM    Ar  495   3.875   2.825   0.475  0.0000  0.0000  0.0000
    11DUM    Ar  496   3.725   2.975   0.475  0.0000  0.0000  0.0000
    11DUM    Ar  497   4.025   2.825   0.325  0.0000  0.0000  0.0000
    11DUM    Ar  498   4.175   2.975   0.325  0.0000  0.0000  0.0000
    11DUM    Ar  499   4.175   2.825   0.475  0.0000  0.0000  0.0000
    11DUM    Ar  500   4.025   2.975   0.475  0.0000  0.0000  0.0000
    11DUM    Ar  501  -0.175   3.125   0.325  0.0000  0.0000  0.0000
    11DUM    Ar  502  -0.025   3.275   0.325  0.0000  0.0000  0.0000
    11DUM    Ar  503  -0.025   3.125   0.475  0.0000  0.0000  0.0000
    11DUM    Ar  504  -0.175   3.275   0.475  0.0000  0.0000  0.0000
    11DUM    Ar  505   0.125   3.125   0.325  0.0000  0.0000  0.0000
    11DUM    Ar  506   0.275   3.275   0.325  0.0000  0.0000  0.0000
    11DUM    Ar  507   0.275   3.125   0.475  0.0000  0.0000  0.0000
    11DUM    Ar  508   0.125   3.275   0.475  0.0000  0.0000  0.0000
    11DUM    Ar  509   0.425   3.275   0.475  0.0000  0.0000  0.0000
    11DUM    Ar  510   1.625   3.125   0.325  0.0000  0.0000  0.0000
    11DUM    Ar  511   1.775   3.275   0.325  0.0000  0.0000  0.0000
    11DUM    Ar  512   1.775   3.125   0.475  0.0000  0.0000  0.0000
    11DUM    Ar  513   1.625   3.275   0.475  0.0000  0.0000  0.0000
    11DUM    Ar  514   1.925   3.125   0.325  0.0000  0.0000  0.0000
    11DUM    Ar  515   2.075   3.275   0.325  0.0000  0.0000  0.0000
    11DUM    Ar  516   2.075   3.125   0.475  0.0000  0.0000  0.0000
    11DUM    Ar  517   1.925   3.275   0.475  0.0000  0.0000  0.0000
    11DUM    Ar  518   2.225   3.125   0.325  0.0000  0.0000  0.0000
    11DUM    Ar  519   2.375   3.275   0.325  0.0000  0.0000  0.0000
    11DUM    Ar  520   2.375   3.125   0.475  0.0000  0.0000  0.0000
    11DUM    Ar  521   2.225   3.275   0.475  0.0000  0.0000  0.0000
    11DUM    Ar  522   3.575   3.275   0.325  0.0000  0.0000  0.0000
    11DUM    Ar  523   3.725   3.125   0.325  0.0000  0.0000  0.0000
    11DUM    Ar  524   3.875   3.275   0.325  0.0000  0.0000  0.0000
    11DUM    Ar  525   3.875   3.125   0.475  0.0000  0.0000  0.0000
    11DUM    Ar  526   3.725   3.275   0.475  0.0000  0.0000  0.0000
    11DUM    Ar  527   4.025   3.125   0.325  0.0000  0.0000  0.0000
    11DUM    Ar  528   4.175   3.275   0.325  0.0000  0.0000  0.0000
    11DUM    Ar  529   4.175   3.125   0.475  0.0000  0.0000  0.0000
    11DUM    Ar  530   4.025   3.275   0.475  0.0000  0.0000  0.0000
    11DUM    Ar  531  -0.175   3.425   0.325  0.0000  0.0000  0.0000
    11DUM    Ar  532  -0.025   3.575   0.325  0.0000  0.0000  0.0000
    11DUM    Ar  533  -0.025   3.425   0.475  0.0000  0.0000  0.0000
    11DUM    Ar  534  -0.175   3.575   0.475  0.0000  0.0000  0.0000
    11DUM    Ar  535   0.125   3.425   0.325  0.0000  0.0000  0.0000
    11DUM    Ar  536   0.275   3.575   0.325  0.0000  0.0000  0.0000
    11DUM    Ar  537   0.275   3.425   0.475  0.0000  0.0000  0.0000
    11DUM    Ar  538   0.125   3.575   0.475  0.0000  0.0000  0.0000
    11DUM    Ar  539   0.425   3.425   0.325  0.0000  0.0000  0.0000
    11DUM    Ar  540   0.575   3.575   0.325  0.0000  0.0000  0.0000
    11DUM    Ar  541   0.425   3.575   0.475  0.0000  0.0000  0.0000
    11DUM    Ar  542   0.725   3.575   0.475  0.0000  0.0000  0.0000
    11DUM    Ar  543   1.475   3.575   0.325  0.0000  0.0000  0.0000
    11DUM    Ar  544   1.475   3.425   0.475  0.0000  0.0000  0.0000
    11DUM    Ar  545   1.325   3.575   0.475  0.0000  0.0000  0.0000
    11DUM    Ar  546   1.625   3.425   0.325  0.0000  0.0000  0.0000
    11DUM    Ar  547   1.775   3.575   0.325  0.0000  0.0000  0.0000
    11DUM    Ar  548   1.775   3.425   0.475  0.0000  0.0000  0.0000
    11DUM    Ar  549   1.625   3.575   0.475  0.0000  0.0000  0.0000
    11DUM    Ar  550   1.925   3.425   0.325  0.0000  0.0000  0.0000
    11DUM    Ar  551   2.075   3.575   0.325  0.0000  0.0000  0.0000
    11DUM    Ar  552   2.075   3.425   0.475  0.0000  0.0000  0.0000
    11DUM    Ar  553   1.925   3.575   0.475  0.0000  0.0000  0.0000
    11DUM    Ar  554   2.225   3.425   0.325  0.0000  0.0000  0.0000
    11DUM    Ar  555   2.375   3.575   0.325  0.0000  0.0000  0.0000
    11DUM    Ar  556   2.375   3.425   0.475  0.0000  0.0000  0.0000
    11DUM    Ar  557   2.225   3.575   0.475  0.0000  0.0000  0.0000
    11DUM    Ar  558   2.525   3.425   0.325  0.0000  0.0000  0.0000
    11DUM    Ar  559   2.675   3.575   0.325  0.0000  0.0000  0.0000
    11DUM    Ar  560   2.525   3.575   0.475  0.0000  0.0000  0.0000
    11DUM    Ar  561   3.275   3.575   0.325  0.0000  0.0000  0.0000
    11DUM    Ar  562   3.575   3.575   0.325  0.0000  0.0000  0.0000
    11DUM    Ar  563   3.575   3.425   0.475  0.0000  0.0000  0.0000
    11DUM    Ar  564   3.425   3.575   0.475  0.0000  0.0000  0.0000
    11DUM    Ar  565   3.725   3.425   0.325  0.0000  0.0000  0.0000
    11DUM    Ar  566   3.875   3.575   0.325  0.0000  0.0000  0.0000
    11DUM    Ar  567   3.875   3.425   0.475  0.0000  0.0000  0.0000
    11DUM    Ar  568   3.725   3.575   0.475  0.0000  0.0000  0.0000
    11DUM    Ar  569   4.025   3.425   0.325  0.0000  0.0000  0.0000
    11DUM    Ar  570   4.175   3.575   0.325  0.0000  0.0000  0.0000
    11DUM    Ar  571   4.175   3.425   0.475  0.0000  0.0000  0.0000
    11DUM    Ar  572   4.025   3.575   0.475  0.0000  0.0000  0.0000
    11DUM    Ar  573  -0.175   3.725   0.325  0.0000  0.0000  0.0000
    11DUM    Ar  574  -0.025   3.875   0.325  0.0000  0.0000  0.0000
    11DUM    Ar  575  -0.025   3.725   0.475  0.0000  0.0000  0.0000
    11DUM    Ar  576  -0.175   3.875   0.475  0.0000  0.0000  0.0000
    11DUM    Ar  577   0.125   3.725   0.325  0.0000  0.0000  0.0000
    11DUM    Ar  578   0.275   3.875   0.325  0.0000  0.0000  0.0000
    11DUM    Ar  579   0.275   3.725   0.475  0.0000  0.0000  0.0000
    11DUM    Ar  580   0.125   3.875   0.475  0.0000  0.0000  0.0000
    11DUM    Ar  581   0.425   3.725   0.325  0.0000  0.0000  0.0000
    11DUM    Ar  582   0.575   3.875   0.325  0.0000  0.0000  0.0000
    11DUM    Ar  583   0.575   3.725   0.475  0.0000  0.0000  0.0000
    11DUM    Ar  584   0.425   3.875   0.475  0.0000  0.0000  0.0000
    11DUM    Ar  585   0.725   3.725   0.325  0.0000  0.0000  0.0000
    11DUM    Ar  586   0.875   3.875   0.325  0.0000  0.0000  0.0000
    11DUM    Ar  587   0.875   3.725   0.475  0.0000  0.0000  0.0000
    11DUM    Ar  588   0.725   3.875   0.475  0.0000  0.0000  0.0000
    11DUM    Ar  589   1.025   3.725   0.325  0.0000  0.0000  0.0000
    11DUM    Ar  590   1.175   3.875   0.325  0.0000  0.0000  0.0000
    11DUM    Ar  591   1.175   3.725   0.475  0.0000  0.0000  0.0000
    11DUM    Ar  592   1.025   3.875   0.475  0.0000  0.0000  0.0000
    11DUM    Ar  593   1.325   3.725   0.325  0.0000  0.0000  0.0000
    11DUM    Ar  594   1.475   3.875   0.325  0.0000  0.0000  0.0000
    11DUM    Ar  595   1.475   3.725   0.475  0.0000  0.0000  0.0000
    11DUM    Ar  596   1.325   3.875   0.475  0.0000  0.0000  0.0000
    11DUM    Ar  597   1.625   3.725   0.325  0.0000  0.0000  0.0000
    11DUM    Ar  598   1.775   3.875   0.325  0.0000  0.0000  0.0000
    11DUM    Ar  599   1.775   3.725   0.475  0.0000  0.0000  0.0000
    11DUM    Ar  600   1.625   3.875   0.475  0.0000  0.0000  0.0000
    11DUM    Ar  601   1.925   3.725   0.325  0.0000  0.0000  0.0000
    11DUM    Ar  602   2.075   3.875   0.325  0.0000  0.0000  0.0000
    11DUM    Ar  603   2.075   3.725   0.475  0.0000  0.0000  0.0000
    11DUM    Ar  604   1.925   3.875   0.475  0.0000  0.0000  0.0000
    11DUM    Ar  605   2.225   3.725   0.325  0.0000  0.0000  0.0000
    11DUM    Ar  606   2.375   3.875   0.325  0.0000  0.0000  0.0000
    11DUM    Ar  607   2.375   3.725   0.475  0.0000  0.0000  0.0000
    11DUM    Ar  608   2.225   3.875   0.475  0.0000  0.0000  0.0000
    11DUM    Ar  609   2.525   3.725   0.325  0.0000  0.0000  0.0000
    11DUM    Ar  610   2.675   3.875   0.325  0.0000  0.0000  0.0000
    11DUM    Ar  611   2.675   3.725   0.475  0.0000  0.0000  0.0000
    11DUM    Ar  612   2.525   3.875   0.475  0.0000  0.0000  0.0000
    11DUM    Ar  613   2.825   3.725   0.325  0.0000  0.0000  0.0000
    11DUM    Ar  614   2.975   3.875   0.325  0.0000  0.0000  0.0000
    11DUM    Ar  615   2.975   3.725   0.475  0.0000  0.0000  0.0000
    11DUM    Ar  616   2.825   3.875   0.475  0.0000  0.0000  0.0000
    11DUM    Ar  617   3.125   3.725   0.325  0.0000  0.0000  0.0000
    11DUM    Ar  618   3.275   3.875   0.325  0.0000  0.0000  0.0000
    11DUM    Ar  619   3.275   3.725   0.475  0.0000  0.0000  0.0000
    11DUM    Ar  620   3.125   3.875   0.475  0.0000  0.0000  0.0000
    11DUM    Ar  621   3.425   3.725   0.325  0.0000  0.0000  0.0000
    11DUM    Ar  622   3.575   3.875   0.325  0.0000  0.0000  0.0000
    11DUM    Ar  623   3.575   3.725   0.475  0.0000  0.0000  0.0000
    11DUM    Ar  624   3.425   3.875   0.475  0.0000  0.0000  0.0000
    11DUM    Ar  625   3.725   3.725   0.325  0.0000  0.0000  0.0000
    11DUM    Ar  626   3.875   3.875   0.325  0.0000  0.0000  0.0000
    11DUM    Ar  627   3.875   3.725   0.475  0.0000  0.0000  0.0000
    11DUM    Ar  628   3.725   3.875   0.475  0.0000  0.0000  0.0000
    11DUM    Ar  629   4.025   3.725   0.325  0.0000  0.0000  0.0000
    11DUM    Ar  630   4.175   3.875   0.325  0.0000  0.0000  0.0000
    11DUM    Ar  631   4.175   3.725   0.475  0.0000  0.0000  0.0000
    11DUM    Ar  632   4.025   3.875   0.475  0.0000  0.0000  0.0000
    11DUM    Ar  633  -0.175   4.025   0.325  0.0000  0.0000  0.0000
    11DUM    Ar  634  -0.025   4.175   0.325  0.0000  0.0000  0.0000
    11DUM    Ar  635  -0.025   4.025   0.475  0.0000  0.0000  0.0000
    11DUM    Ar  636  -0.175   4.175   0.475  0.0000  0.0000  0.0000
    11DUM    Ar  637   0.125   4.025   0.325  0.0000  0.0000  0.0000
    11DUM    Ar  638   0.275   4.175   0.325  0.0000  0.0000  0.0000
    11DUM    Ar  639   0.275   4.025   0.475  0.0000  0.0000  0.0000
    11DUM    Ar  640   0.125   4.175   0.475  0.0000  0.0000  0.0000
    11DUM    Ar  641   0.425   4.025   0.325  0.0000  0.0000  0.0000
    11DUM    Ar  642   0.575   4.175   0.325  0.0000  0.0000  0.0000
    11DUM    Ar  643   0.575   4.025   0.475  0.0000  0.0000  0.0000
    11DUM    Ar  644   0.425   4.175   0.475  0.0000  0.0000  0.0000
    11DUM    Ar  645   0.725   4.025   0.325  0.0000  0.0000  0.0000
    11DUM    Ar  646   0.875   4.175   0.325  0.0000  0.0000  0.0000
    11DUM    Ar  647   0.875   4.025   0.475  0.0000  0.0000  0.0000
    11DUM    Ar  648   0.725   4.175   0.475  0.0000  0.0000  0.0000
    11DUM    Ar  649   1.025   4.025   0.325  0.0000  0.0000  0.0000
    11DUM    Ar  650   1.175   4.175   0.325  0.0000  0.0000  0.0000
    11DUM    Ar  651   1.175   4.025   0.475  0.0000  0.0000  0.0000
    11DUM    Ar  652   1.025   4.175   0.475  0.0000  0.0000  0.0000
    11DUM    Ar  653   1.325   4.025   0.325  0.0000  0.0000  0.0000
    11DUM    Ar  654   1.475   4.175   0.325  0.0000  0.0000  0.0000
    11DUM    Ar  655   1.475   4.025   0.475  0.0000  0.0000  0.0000
    11DUM    Ar  656   1.325   4.175   0.475  0.0000  0.0000  0.0000
    11DUM    Ar  657   1.625   4.025   0.325  0.0000  0.0000  0.0000
    11DUM    Ar  658   1.775   4.175   0.325  0.0000  0.0000  0.0000
    11DUM    Ar  659   1.775   4.025   0.475  0.0000  0.0000  0.0000
    11DUM    Ar  660   1.625   4.175   0.475  0.0000  0.0000  0.0000
    11DUM    Ar  661   1.925   4.025   0.325  0.0000  0.0000  0.0000
    11DUM    Ar  662   2.075   4.175   0.325  0.0000  0.0000  0.0000
    11DUM    Ar  663   2.075   4.025   0.475  0.0000  0.0000  0.0000
    11DUM    Ar  664   1.925   4.175   0.475  0.0000  0.0000  0.0000
    11DUM    Ar  665   2.225   4.025   0.325  0.0000  0.0000  0.0000
    11DUM    Ar  666   2.375   4.175   0.325  0.0000  0.0000  0.0000
    11DUM    Ar  667   2.375   4.025   0.475  0.0000  0.0000  0.0000
    11DUM    Ar  668   2.225   4.175   0.475  0.0000  0.0000  0.0000
    11DUM    Ar  669   2.525   4.025   0.325  0.0000  0.0000  0.0000
    11DUM    Ar  670   2.675   4.175   0.325  0.0000  0.0000  0.0000
    11DUM    Ar  671   2.675   4.025   0.475  0.0000  0.0000  0.0000
    11DUM    Ar  672   2.525   4.175   0.475  0.0000  0.0000  0.0000
    11DUM    Ar  673   2.825   4.025   0.325  0.0000  0.0000  0.0000
    11DUM    Ar  674   2.975   4.175   0.325  0.0000  0.0000  0.0000
    11DUM    Ar  675   2.975   4.025   0.475  0.0000  0.0000  0.0000
    11DUM    Ar  676   2.825   4.175   0.475  0.0000  0.0000  0.0000
    11DUM    Ar  677   3.125   4.025   0.325  0.0000  0.0000  0.0000
    11DUM    Ar  678   3.275   4.175   0.325  0.0000  0.0000  0.0000
    11DUM    Ar  679   3.275   4.025   0.475  0.0000  0.0000  0.0000
    11DUM    Ar  680   3.125   4.175   0.475  0.0000  0.0000  0.0000
    11DUM    Ar  681   3.425   4.025   0.325  0.0000  0.0000  0.0000
    11DUM    Ar  682   3.575   4.175   0.325  0.0000  0.0000  0.0000
    11DUM    Ar  683   3.575   4.025   0.475  0.0000  0.0000  0.0000
    11DUM    Ar  684   3.425   4.175   0.475  0.0000  0.0000  0.0000
    11DUM    Ar  685   3.725   4.025   0.325  0.0000  0.0000  0.0000
    11DUM    Ar  686   3.875   4.175   0.325  0.0000  0.0000  0.0000
    11DUM    Ar  687   3.875   4.025   0.475  0.0000  0.0000  0.0000
    11DUM    Ar  688   3.725   4.175   0.475  0.0000  0.0000  0.0000
    11DUM    Ar  689   4.025   4.025   0.325  0.0000  0.0000  0.0000
    11DUM    Ar  690   4.175   4.175   0.325  0.0000  0.0000  0.0000
    11DUM    Ar  691   4.175   4.025   0.475  0.0000  0.0000  0.0000
    11DUM    Ar  692   4.025   4.175   0.475  0.0000  0.0000  0.0000
    11DUM    Ar  693  -0.175  -0.175   0.625  0.0000  0.0000  0.0000
    11DUM    Ar  694  -0.025  -0.025   0.625  0.0000  0.0000  0.0000
    11DUM    Ar  695  -0.025  -0.175   0.775  0.0000  0.0000  0.0000
    11DUM    Ar  696  -0.175  -0.025   0.775  0.0000  0.0000  0.0000
    11DUM    Ar  697   0.125  -0.175   0.625  0.0000  0.0000  0.0000
    11DUM    Ar  698   0.275  -0.025   0.625  0.0000  0.0000  0.0000
    11DUM    Ar  699   0.275  -0.175   0.775  0.0000  0.0000  0.0000
    11DUM    Ar  700   0.125  -0.025   0.775  0.0000  0.0000  0.0000
    11DUM    Ar  701   0.425  -0.175   0.625  0.0000  0.0000  0.0000
    11DUM    Ar  702   0.575  -0.025   0.625  0.0000  0.0000  0.0000
    11DUM    Ar  703   0.575  -0.175   0.775  0.0000  0.0000  0.0000
    11DUM    Ar  704   0.425  -0.025   0.775  0.0000  0.0000  0.0000
    11DUM    Ar  705   0.725  -0.175   0.625  0.0000  0.0000  0.0000
    11DUM    Ar  706   0.875  -0.025   0.625  0.0000  0.0000  0.0000
    11DUM    Ar  707   0.875  -0.175   0.775  0.0000  0.0000  0.0000
    11DUM    Ar  708   0.725  -0.025   0.775  0.0000  0.0000  0.0000
    11DUM    Ar  709   1.025  -0.175   0.625  0.0000  0.0000  0.0000
    11DUM    Ar  710   1.175  -0.025   0.625  0.0000  0.0000  0.0000
    11DUM    Ar  711   1.175  -0.175   0.775  0.0000  0.0000  0.0000
    11DUM    Ar  712   1.025  -0.025   0.775  0.0000  0.0000  0.0000
    11DUM    Ar  713   1.325  -0.175   0.625  0.0000  0.0000  0.0000
    11DUM    Ar  714   1.475  -0.025   0.625  0.0000  0.0000  0.0000
    11DUM    Ar  715   1.475  -0.175   0.775  0.0000  0.0000  0.0000
    11DUM    Ar  716   1.325  -0.025   0.775  0.0000  0.0000  0.0000
    11DUM    Ar  717   1.625  -0.175   0.625  0.0000  0.0000  0.0000
    11DUM    Ar  718   1.775  -0.025   0.625  0.0000  0.0000  0.0000
    11DUM    Ar  719   1.775  -0.175   0.775  0.0000  0.0000  0.0000
    11DUM    Ar  720   1.625  -0.025   0.775  0.0000  0.0000  0.0000
    11DUM    Ar  721   1.925  -0.175   0.625  0.0000  0.0000  0.0000
    11DUM    Ar  722   2.075  -0.025   0.625  0.0000  0.0000  0.0000
    11DUM    Ar  723   2.075  -0.175   0.775  0.0000  0.0000  0.0000
    11DUM    Ar  724   1.925  -0.025   0.775  0.0000  0.0000  0.0000
    11DUM    Ar  725   2.225  -0.175   0.625  0.0000  0.0000  0.0000
    11DUM    Ar  726   2.375  -0.025   0.625  0.0000  0.0000  0.0000
    11DUM    Ar  727   2.375  -0.175   0.775  0.0000  0.0000  0.0000
    11DUM    Ar  728   2.225  -0.025   0.775  0.0000  0.0000  0.0000
    11DUM    Ar  729   2.525  -0.175   0.625  0.0000  0.0000  0.0000
    11DUM    Ar  730   2.675  -0.025   0.625  0.0000  0.0000  0.0000
    11DUM    Ar  731   2.675  -0.175   0.775  0.0000  0.0000  0.0000
    11DUM    Ar  732   2.525  -0.025   0.775  0.0000  0.0000  0.0000
    11DUM    Ar  733   2.825  -0.175   0.625  0.0000  0.0000  0.0000
    11DUM    Ar  734   2.975  -0.025   0.625  0.0000  0.0000  0.0000
    11DUM    Ar  735   2.975  -0.175   0.775  0.0000  0.0000  0.0000
    11DUM    Ar  736   2.825  -0.025   0.775  0.0000  0.0000  0.0000
    11DUM    Ar  737   3.125  -0.175   0.625  0.0000  0.0000  0.0000
    11DUM    Ar  738   3.275  -0.025   0.625  0.0000  0.0000  0.0000
    11DUM    Ar  739   3.275  -0.175   0.775  0.0000  0.0000  0.0000
    11DUM    Ar  740   3.125  -0.025   0.775  0.0000  0.0000  0.0000
    11DUM    Ar  741   3.425  -0.175   0.625  0.0000  0.0000  0.0000
    11DUM    Ar  742   3.575  -0.025   0.625  0.0000  0.0000  0.0000
    11DUM    Ar  743   3.575  -0.175   0.775  0.0000  0.0000  0.0000
    11DUM    Ar  744   3.425  -0.025   0.775  0.0000  0.0000  0.0000
    11DUM    Ar  745   3.725  -0.175   0.625  0.0000  0.0000  0.0000
    11DUM    Ar  746   3.875  -0.025   0.625  0.0000  0.0000  0.0000
    11DUM    Ar  747   3.875  -0.175   0.775  0.0000  0.0000  0.0000
    11DUM    Ar  748   3.725  -0.025   0.775  0.0000  0.0000  0.0000
    11DUM    Ar  749   4.025  -0.175   0.625  0.0000  0.0000  0.0000
    11DUM    Ar  750   4.175  -0.025   0.625  0.0000  0.0000  0.0000
    11DUM    Ar  751   4.175  -0.175   0.775  0.0000  0.0000  0.0000
    11DUM    Ar  752   4.025  -0.025   0.775  0.0000  0.0000  0.0000
    11DUM    Ar  753  -0.175   0.125   0.625  0.0000  0.0000  0.0000
    11DUM    Ar  754  -0.025   0.275   0.625  0.0000  0.0000  0.0000
    11DUM    Ar  755  -0.025   0.125   0.775  0.0000  0.0000  0.0000
    11DUM    Ar  756  -0.175   0.275   0.775  0.0000  0.0000  0.0000
    11DUM    Ar  757   0.125   0.125   0.625  0.0000  0.0000  0.0000
    11DUM    Ar  758   0.275   0.275   0.625  0.0000  0.0000  0.0000
    11DUM    Ar  759   0.275   0.125   0.775  0.0000  0.0000  0.0000
    11DUM    Ar  760   0.125   0.275   0.775  0.0000  0.0000  0.0000
    11DUM    Ar  761   0.425   0.125   0.625  0.0000  0.0000  0.0000
    11DUM    Ar  762   0.575   0.275   0.625  0.0000  0.0000  0.0000
    11DUM    Ar  763   0.575   0.125   0.775  0.0000  0.0000  0.0000
    11DUM    Ar  764   0.425   0.275   0.775  0.0000  0.0000  0.0000
    11DUM    Ar  765   0.725   0.125   0.625  0.0000  0.0000  0.0000
    11DUM    Ar  766   0.875   0.275   0.625  0.0000  0.0000  0.0000
    11DUM    Ar  767   0.875   0.125   0.775  0.0000  0.0000  0.0000
    11DUM    Ar  768   0.725   0.275   0.775  0.0000  0.0000  0.0000
    11DUM    Ar  769   1.025   0.125   0.625  0.0000  0.0000  0.0000
    11DUM    Ar  770   1.175   0.275   0.625  0.0000  0.0000  0.0000
    11DUM    Ar  771   1.175   0.125   0.775  0.0000  0.0000  0.0000
    11DUM    Ar  772   1.025   0.275   0.775  0.0000  0.0000  0.0000
    11DUM    Ar  773   1.325   0.125   0.625  0.0000  0.0000  0.0000
    11DUM    Ar  774   1.475   0.275   0.625  0.0000  0.0000  0.0000
    11DUM    Ar  775   1.475   0.125   0.775  0.0000  0.0000  0.0000
    11DUM    Ar  776   1.325   0.275   0.775  0.0000  0.0000  0.0000
    11DUM    Ar  777   1.625   0.125   0.625  0.0000  0.0000  0.0000
    11DUM    Ar  778   1.775   0.275   0.625  0.0000  0.0000  0.0000
    11DUM    Ar  779   1.775   0.125   0.775  0.0000  0.0000  0.0000
    11DUM    Ar  780   1.625   0.275   0.775  0.0000  0.0000  0.0000
    11DUM    Ar  781   1.925   0.125   0.625  0.0000  0.0000  0.0000
    11DUM    Ar  782   2.075   0.275   0.625  0.0000  0.0000  0.0000
    11DUM    Ar  783   2.075   0.125   0.775  0.0000  0.0000  0.0000
    11DUM    Ar  784   1.925   0.275   0.775  0.0000  0.0000  0.0000
    11DUM    Ar  785   2.225   0.125   0.625  0.0000  0.0000  0.0000
    11DUM    Ar  786   2.375   0.275   0.625  0.0000  0.0000  0.0000
    11DUM    Ar  787   2.375   0.125   0.775  0.0000  0.0000  0.0000
    11DUM    Ar  788   2.225   0.275   0.775  0.0000  0.0000  0.0000
    11DUM    Ar  789   2.525   0.125   0.625  0.0000  0.0000  0.0000
    11DUM    Ar  790   2.675   0.275   0.625  0.0000  0.0000  0.0000
    11DUM    Ar  791   2.675   0.125   0.775  0.0000  0.0000  0.0000
    11DUM    Ar  792   2.525   0.275   0.775  0.0000  0.0000  0.0000
    11DUM    Ar  793   2.825   0.125   0.625  0.0000  0.0000  0.0000
    11DUM    Ar  794   2.975   0.275   0.625  0.0000  0.0000  0.0000
    11DUM    Ar  795   2.975   0.125   0.775  0.0000  0.0000  0.0000
    11DUM    Ar  796   2.825   0.275   0.775  0.0000  0.0000  0.0000
    11DUM    Ar  797   3.125   0.125   0.625  0.0000  0.0000  0.0000
    11DUM    Ar  798   3.275   0.275   0.625  0.0000  0.0000  0.0000
    11DUM    Ar  799   3.275   0.125   0.775  0.0000  0.0000  0.0000
    11DUM    Ar  800   3.125   0.275   0.775  0.0000  0.0000  0.0000
    11DUM    Ar  801   3.425   0.125   0.625  0.0000  0.0000  0.0000
    11DUM    Ar  802   3.575   0.275   0.625  0.0000  0.0000  0.0000
    11DUM    Ar  803   3.575   0.125   0.775  0.0000  0.0000  0.0000
    11DUM    Ar  804   3.425   0.275   0.775  0.0000  0.0000  0.0000
    11DUM    Ar  805   3.725   0.125   0.625  0.0000  0.0000  0.0000
    11DUM    Ar  806   3.875   0.275   0.625  0.0000  0.0000  0.0000
    11DUM    Ar  807   3.875   0.125   0.775  0.0000  0.0000  0.0000
    11DUM    Ar  808   3.725   0.275   0.775  0.0000  0.0000  0.0000
    11DUM    Ar  809   4.025   0.125   0.625  0.0000  0.0000  0.0000
    11DUM    Ar  810   4.175   0.275   0.625  0.0000  0.0000  0.0000
    11DUM    Ar  811   4.175   0.125   0.775  0.0000  0.0000  0.0000
    11DUM    Ar  812   4.025   0.275   0.775  0.0000  0.0000  0.0000
    11DUM    Ar  813  -0.175   0.425   0.625  0.0000  0.0000  0.0000
    11DUM    Ar  814  -0.025   0.575   0.625  0.0000  0.0000  0.0000
    11DUM    Ar  815  -0.025   0.425   0.775  0.0000  0.0000  0.0000
    11DUM    Ar  816  -0.175   0.575   0.775  0.0000  0.0000  0.0000
    11DUM    Ar  817   0.125   0.425   0.625  0.0000  0.0000  0.0000
    11DUM    Ar  818   0.275   0.575   0.625  0.0000  0.0000  0.0000
    11DUM    Ar  819   0.275   0.425   0.775  0.0000  0.0000  0.0000
    11DUM    Ar  820   0.125   0.575   0.775  0.0000  0.0000  0.0000
    11DUM    Ar  821   0.425   0.425   0.625  0.0000  0.0000  0.0000
    11DUM    Ar  822   0.575   0.425   0.775  0.0000  0.0000  0.0000
    11DUM    Ar  823   0.425   0.575   0.775  0.0000  0.0000  0.0000
    11DUM    Ar  824   0.725   0.425   0.625  0.0000  0.0000  0.0000
    11DUM    Ar  825   1.325   0.425   0.625  0.0000  0.0000  0.0000
    11DUM    Ar  826   1.475   0.575   0.625  0.0000  0.0000  0.0000
    11DUM    Ar  827   1.475   0.425   0.775  0.0000  0.0000  0.0000
    11DUM    Ar  828   1.625   0.425   0.625  0.0000  0.0000  0.0000
    11DUM    Ar  829   1.775   0.575   0.625  0.0000  0.0000  0.0000
    11DUM    Ar  830   1.775   0.425   0.775  0.0000  0.0000  0.0000
    11DUM    Ar  831   1.625   0.575   0.775  0.0000  0.0000  0.0000
    11DUM    Ar  832   1.925   0.425   0.625  0.0000  0.0000  0.0000
    11DUM    Ar  833   2.075   0.575   0.625  0.0000  0.0000  0.0000
    11DUM    Ar  834   2.075   0.425   0.775  0.0000  0.0000  0.0000
    11DUM    Ar  835   1.925   0.575   0.775  0.0000  0.0000  0.0000
    11DUM    Ar  836   2.225   0.425   0.625  0.0000  0.0000  0.0000
    11DUM    Ar  837   2.375   0.575   0.625  0.0000  0.0000  0.0000
    11DUM    Ar  838   2.375   0.425   0.775  0.0000  0.0000  0.0000
    11DUM    Ar  839   2.225   0.575   0.775  0.0000  0.0000  0.0000
    11DUM    Ar  840   2.525   0.425   0.625  0.0000  0.0000  0.0000
    11DUM    Ar  841   2.675   0.425   0.775  0.0000  0.0000  0.0000
    11DUM    Ar  842   2.525   0.575   0.775  0.0000  0.0000  0.0000
    11DUM    Ar  843   3.275   0.425   0.775  0.0000  0.0000  0.0000
    11DUM    Ar  844   3.425   0.425   0.625  0.0000  0.0000  0.0000
    11DUM    Ar  845   3.575   0.575   0.625  0.0000  0.0000  0.0000
    11DUM    Ar  846   3.575   0.425   0.775  0.0000  0.0000  0.0000
    11DUM    Ar  847   3.725   0.425   0.625  0.0000  0.0000  0.0000
    11DUM    Ar  848   3.875   0.575   0.625  0.0000  0.0000  0.0000
    11DUM    Ar  849   3.875   0.425   0.775  0.0000  0.0000  0.0000
    11DUM    Ar  850   3.725   0.575   0.775  0.0000  0.0000  0.0000
    11DUM    Ar  851   4.025   0.425   0.625  0.0000  0.0000  0.0000
    11DUM    Ar  852   4.175   0.575   0.625  0.0000  0.0000  0.0000
    11DUM    Ar  853   4.175   0.425   0.775  0.0000  0.0000  0.0000
    11DUM    Ar  854   4.025   0.575   0.775  0.0000  0.0000  0.0000
    11DUM    Ar  855  -0.175   0.725   0.625  0.0000  0.0000  0.0000
    11DUM    Ar  856  -0.025   0.875   0.625  0.0000  0.0000  0.0000
    11DUM    Ar  857  -0.025   0.725   0.775  0.0000  0.0000  0.0000
    11DUM    Ar  858  -0.175   0.875   0.775  0.0000  0.0000  0.0000
    11DUM    Ar  859   0.125   0.725   0.625  0.0000  0.0000  0.0000
    11DUM    Ar  860   0.275   0.875   0.625  0.0000  0.0000  0.0000
    11DUM    Ar  861   0.275   0.725   0.775  0.0000  0.0000  0.0000
    11DUM    Ar  862   0.125   0.875   0.775  0.0000  0.0000  0.0000
    11DUM    Ar  863   0.425   0.725   0.625  0.0000  0.0000  0.0000
    11DUM    Ar  864   1.625   0.725   0.625  0.0000  0.0000  0.0000
    11DUM    Ar  865   1.775   0.875   0.625  0.0000  0.0000  0.0000
    11DUM    Ar  866   1.775   0.725   0.775  0.0000  0.0000  0.0000
    11DUM    Ar  867   1.625   0.875   0.775  0.0000  0.0000  0.0000
    11DUM    Ar  868   1.925   0.725   0.625  0.0000  0.0000  0.0000
    11DUM    Ar  869   2.075   0.875   0.625  0.0000  0.0000  0.0000
    11DUM    Ar  870   2.075   0.725   0.775  0.0000  0.0000  0.0000
    11DUM    Ar  871   1.925   0.875   0.775  0.0000  0.0000  0.0000
    11DUM    Ar  872   2.225   0.725   0.625  0.0000  0.0000  0.0000
    11DUM    Ar  873   2.375   0.875   0.625  0.0000  0.0000  0.0000
    11DUM    Ar  874   2.375   0.725   0.775  0.0000  0.0000  0.0000
    11DUM    Ar  875   2.225   0.875   0.775  0.0000  0.0000  0.0000
    11DUM    Ar  876   3.575   0.725   0.775  0.0000  0.0000  0.0000
    11DUM    Ar  877   3.725   0.725   0.625  0.0000  0.0000  0.0000
    11DUM    Ar  878   3.875   0.875   0.625  0.0000  0.0000  0.0000
    11DUM    Ar  879   3.875   0.725   0.775  0.0000  0.0000  0.0000
    11DUM    Ar  880   3.725   0.875   0.775  0.0000  0.0000  0.0000
    11DUM    Ar  881   4.025   0.725   0.625  0.0000  0.0000  0.0000
    11DUM    Ar  882   4.175   0.875   0.625  0.0000  0.0000  0.0000
    11DUM    Ar  883   4.175   0.725   0.775  0.0000  0.0000  0.0000
    11DUM    Ar  884   4.025   0.875   0.775  0.0000  0.0000  0.0000
    11DUM    Ar  885  -0.175   1.025   0.625  0.0000  0.0000  0.0000
    11DUM    Ar  886  -0.025   1.175   0.625  0.0000  0.0000  0.0000
    11DUM    Ar  887  -0.025   1.025   0.775  0.0000  0.0000  0.0000
    11DUM    Ar  888  -0.175   1.175   0.775  0.0000  0.0000  0.0000
    11DUM    Ar  889   0.125   1.025   0.625  0.0000  0.0000  0.0000
    11DUM    Ar  890   0.275   1.175   0.625  0.0000  0.0000  0.0000
    11DUM    Ar  891   0.275   1.025   0.775  0.0000  0.0000  0.0000
    11DUM    Ar  892   0.125   1.175   0.775  0.0000  0.0000  0.0000
    11DUM    Ar  893   1.625   1.025   0.625  0.0000  0.0000  0.0000
    11DUM    Ar  894   1.775   1.175   0.625  0.0000  0.0000  0.0000
    11DUM    Ar  895   1.775   1.025   0.775  0.0000  0.0000  0.0000
    11DUM    Ar  896   1.625   1.175   0.775  0.0000  0.0000  0.0000
    11DUM    Ar  897   1.925   1.025   0.625  0.0000  0.0000  0.0000
    11DUM    Ar  898   2.075   1.175   0.625  0.0000  0.0000  0.0000
    11DUM    Ar  899   2.075   1.025   0.775  0.0000  0.0000  0.0000
    11DUM    Ar  900   1.925   1.175   0.775  0.0000  0.0000  0.0000
    11DUM    Ar  901   2.225   1.025   0.625  0.0000  0.0000  0.0000
    11DUM    Ar  902   2.375   1.175   0.625  0.0000  0.0000  0.0000
    11DUM    Ar  903   2.375   1.025   0.775  0.0000  0.0000  0.0000
    11DUM    Ar  904   2.225   1.175   0.775  0.0000  0.0000  0.0000
    11DUM    Ar  905   3.725   1.025   0.625  0.0000  0.0000  0.0000
    11DUM    Ar  906   3.875   1.175   0.625  0.0000  0.0000  0.0000
    11DUM    Ar  907   3.875   1.025   0.775  0.0000  0.0000  0.0000
    11DUM    Ar  908   3.725   1.175   0.775  0.0000  0.0000  0.0000
    11DUM    Ar  909   4.025   1.025   0.625  0.0000  0.0000  0.0000
    11DUM    Ar  910   4.175   1.175   0.625  0.0000  0.0000  0.0000
    11DUM    Ar  911   4.175   1.025   0.775  0.0000  0.0000  0.0000
    11DUM    Ar  912   4.025   1.175   0.775  0.0000  0.0000  0.0000
    11DUM    Ar  913  -0.175   1.325   0.625  0.0000  0.0000  0.0000
    11DUM    Ar  914  -0.025   1.475   0.625  0.0000  0.0000  0.0000
    11DUM    Ar  915  -0.025   1.325   0.775  0.0000  0.0000  0.0000
    11DUM    Ar  916  -0.175   1.475   0.775  0.0000  0.0000  0.0000
    11DUM    Ar  917   0.125   1.325   0.625  0.0000  0.0000  0.0000
    11DUM    Ar  918   0.275   1.475   0.625  0.0000  0.0000  0.0000
    11DUM    Ar  919   0.275   1.325   0.775  0.0000  0.0000  0.0000
    11DUM    Ar  920   0.125   1.475   0.775  0.0000  0.0000  0.0000
    11DUM    Ar  921   0.425   1.325   0.625  0.0000  0.0000  0.0000
    11DUM    Ar  922   0.575   1.475   0.625  0.0000  0.0000  0.0000
    11DUM    Ar  923   0.425   1.475   0.775  0.0000  0.0000  0.0000
    11DUM    Ar  924   1.475   1.475   0.625  0.0000  0.0000  0.0000
    11DUM    Ar  925   1.625   1.325   0.625  0.0000  0.0000  0.0000
    11DUM    Ar  926   1.775   1.475   0.625  0.0000  0.0000  0.0000
    11DUM    Ar  927   1.775   1.325   0.775  0.0000  0.0000  0.0000
    11DUM    Ar  928   1.625   1.475   0.775  0.0000  0.0000  0.0000
    11DUM    Ar  929   1.925   1.325   0.625  0.0000  0.0000  0.0000
    11DUM    Ar  930   2.075   1.475   0.625  0.0000  0.0000  0.0000
    11DUM    Ar  931   2.075   1.325   0.775  0.0000  0.0000  0.0000
    11DUM    Ar  932   1.925   1.475   0.775  0.0000  0.0000  0.0000
    11DUM    Ar  933   2.225   1.325   0.625  0.0000  0.0000  0.0000
    11DUM    Ar  934   2.375   1.475   0.625  0.0000  0.0000  0.0000
    11DUM    Ar  935   2.375   1.325   0.775  0.0000  0.0000  0.0000
    11DUM    Ar  936   2.225   1.475   0.775  0.0000  0.0000  0.0000
    11DUM    Ar  937   2.525   1.475   0.775  0.0000  0.0000  0.0000
    11DUM    Ar  938   3.575   1.475   0.625  0.0000  0.0000  0.0000
    11DUM    Ar  939   3.575   1.325   0.775  0.0000  0.0000  0.0000
    11DUM    Ar  940   3.425   1.475   0.775  0.0000  0.0000  0.0000
    11DUM    Ar  941   3.725   1.325   0.625  0.0000  0.0000  0.0000
    11DUM    Ar  942   3.875   1.475   0.625  0.0000  0.0000  0.0000
    11DUM    Ar  943   3.875   1.325   0.775  0.0000  0.0000  0.0000
    11DUM    Ar  944   3.725   1.475   0.775  0.0000  0.0000  0.0000
    11DUM    Ar  945   4.025   1.325   0.625  0.0000  0.0000  0.0000
    11DUM    Ar  946   4.175   1.475   0.625  0.0000  0.0000  0.0000
    11DUM    Ar  947   4.175   1.325   0.775  0.0000  0.0000  0.0000
    11DUM    Ar  948   4.025   1.475   0.775  0.0000  0.0000  0.0000
    11DUM    Ar  949  -0.175   1.625   0.625  0.0000  0.0000  0.0000
    11DUM    Ar  950  -0.025   1.775   0.625  0.0000  0.0000  0.0000
    11DUM    Ar  951  -0.025   1.625   0.775  0.0000  0.0000  0.0000
    11DUM    Ar  952  -0.175   1.775   0.775  0.0000  0.0000  0.0000
    11DUM    Ar  953   0.125   1.625   0.625  0.0000  0.0000  0.0000
    11DUM    Ar  954   0.275   1.775   0.625  0.0000  0.0000  0.0000
    11DUM    Ar  955   0.275   1.625   0.775  0.0000  0.0000  0.0000
    11DUM    Ar  956   0.125   1.775   0.775  0.0000  0.0000  0.0000
    11DUM    Ar  957   0.425   1.625   0.625  0.0000  0.0000  0.0000
    11DUM    Ar  958   0.575   1.775   0.625  0.0000  0.0000  0.0000
    11DUM    Ar  959   0.575   1.625   0.775  0.0000  0.0000  0.0000
    11DUM    Ar  960   0.425   1.775   0.775  0.0000  0.0000  0.0000
    11DUM    Ar  961   0.725   1.625   0.625  0.0000  0.0000  0.0000
    11DUM    Ar  962   0.875   1.775   0.625  0.0000  0.0000  0.0000
    11DUM    Ar  963   0.875   1.625   0.775  0.0000  0.0000  0.0000
    11DUM    Ar  964   0.725   1.775   0.775  0.0000  0.0000  0.0000
    11DUM    Ar  965   1.025   1.625   0.625  0.0000  0.0000  0.0000
    11DUM    Ar  966   1.175   1.775   0.625  0.0000  0.0000  0.0000
    11DUM    Ar  967   1.175   1.625   0.775  0.0000  0.0000  0.0000
    11DUM    Ar  968   1.025   1.775   0.775  0.0000  0.0000  0.0000
    11DUM    Ar  969   1.325   1.625   0.625  0.0000  0.0000  0.0000
    11DUM    Ar  970   1.475   1.775   0.625  0.0000  0.0000  0.0000
    11DUM    Ar  971   1.475   1.625   0.775  0.0000  0.0000  0.0000
    11DUM    Ar  972   1.325   1.775   0.775  0.0000  0.0000  0.0000
    11DUM    Ar  973   1.625   1.625   0.625  0.0000  0.0000  0.0000
    11DUM    Ar  974   1.775   1.775   0.625  0.0000  0.0000  0.0000
    11DUM    Ar  975   1.775   1.625   0.775  0.0000  0.0000  0.0000
    11DUM    Ar  976   1.625   1.775   0.775  0.0000  0.0000  0.0000
    11DUM    Ar  977   1.925   1.625   0.625  0.0000  0.0000  0.0000
    11DUM    Ar  978   2.075   1.775   0.625  0.0000  0.0000  0.0000
    11DUM    Ar  979   2.075   1.625   0.775  0.0000  0.0000  0.0000
    11DUM    Ar  980   1.925   1.775   0.775  0.0000  0.0000  0.0000
    11DUM    Ar  981   2.225   1.625   0.625  0.0000  0.0000  0.0000
    11DUM    Ar  982   2.375   1.775   0.625  0.0000  0.0000  0.0000
    11DUM    Ar  983   2.375   1.625   0.775  0.0000  0.0000  0.0000
    11DUM    Ar  984   2.225   1.775   0.775  0.0000  0.0000  0.0000
    11DUM    Ar  985   2.525   1.625   0.625  0.0000  0.0000  0.0000
    11DUM    Ar  986   2.675   1.775   0.625  0.0000  0.0000  0.0000
    11DUM    Ar  987   2.675   1.625   0.775  0.0000  0.0000  0.0000
    11DUM    Ar  988   2.525   1.775   0.775  0.0000  0.0000  0.0000
    11DUM    Ar  989   2.825   1.625   0.625  0.0000  0.0000  0.0000
    11DUM    Ar  990   2.975   1.775   0.625  0.0000  0.0000  0.0000
    11DUM    Ar  991   2.975   1.625   0.775  0.0000  0.0000  0.0000
    11DUM    Ar  992   2.825   1.775   0.775  0.0000  0.0000  0.0000
    11DUM    Ar  993   3.125   1.625   0.625  0.0000  0.0000  0.0000
    11DUM    Ar  994   3.275   1.775   0.625  0.0000  0.0000  0.0000
    11DUM    Ar  995   3.275   1.625   0.775  0.0000  0.0000  0.0000
    11DUM    Ar  996   3.125   1.775   0.775  0.0000  0.0000  0.0000
    11DUM    Ar  997   3.425   1.625   0.625  0.0000  0.0000  0.0000
    11DUM    Ar  998   3.575   1.775   0.625  0.0000  0.0000  0.0000
    11DUM    Ar  999   3.575   1.625   0.775  0.0000  0.0000  0.0000
    11DUM    Ar 1000   3.425   1.775   0.775  0.0000  0.0000  0.0000
    11DUM    Ar 1001   3.725   1.625   0.625  0.0000  0.0000  0.0000
    11DUM    Ar 1002   3.875   1.775   0.625  0.0000  0.0000  0.0000
    11DUM    Ar 1003   3.875   1.625   0.775  0.0000  0.0000  0.0000
    11DUM    Ar 1004   3.725   1.775   0.775  0.0000  0.0000  0.0000
    11DUM    Ar 1005   4.025   1.625   0.625  0.0000  0.0000  0.0000
    11DUM    Ar 1006   4.175   1.775   0.625  0.0000  0.0000  0.0000
    11DUM    Ar 1007   4.175   1.625   0.775  0.0000  0.0000  0.0000
    11DUM    Ar 1008   4.025   1.775   0.775  0.0000  0.0000  0.0000
    11DUM    Ar 1009  -0.175   1.925   0.625  0.0000  0.0000  0.0000
    11DUM    Ar 1010  -0.025   2.075   0.625  0.0000  0.0000  0.0000
    11DUM    Ar 1011  -0.025   1.925   0.775  0.0000  0.0000  0.0000
    11DUM    Ar 1012  -0.175   2.075   0.775  0.0000  0.0000  0.0000
    11DUM    Ar 1013   0.125   1.925   0.625  0.0000  0.0000  0.0000
    11DUM    Ar 1014   0.275   2.075   0.625  0.0000  0.0000  0.0000
    11DUM    Ar 1015   0.275   1.925   0.775  0.0000  0.0000  0.0000
    11DUM    Ar 1016   0.125   2.075   0.775  0.0000  0.0000  0.0000
    11DUM    Ar 1017   0.425   1.925   0.625  0.0000  0.0000  0.0000
    11DUM    Ar 1018   0.575   2.075   0.625  0.0000  0.0000  0.0000
    11DUM    Ar 1019   0.575   1.925   0.775  0.0000  0.0000  0.0000
    11DUM    Ar 1020   0.425   2.075   0.775  0.0000  0.0000  0.0000
    11DUM    Ar 1021   0.725   1.925   0.625  0.0000  0.0000  0.0000
    11DUM    Ar 1022   0.875   2.075   0.625  0.0000  0.0000  0.0000
    11DUM    Ar 1023   0.875   1.925   0.775  0.0000  0.0000  0.0000
    11DUM    Ar 1024   0.725   2.075   0.775  0.0000  0.0000  0.0000
    11DUM    Ar 1025   1.025   1.925   0.625  0.0000  0.0000  0.0000
    11DUM    Ar 1026   1.175   2.075   0.625  0.0000  0.0000  0.0000
    11DUM    Ar 1027   1.175   1.925   0.775  0.0000  0.0000  0.0000
    11DUM    Ar 1028   1.025   2.075   0.775  0.0000  0.0000  0.0000
    11DUM    Ar 1029   1.325   1.925   0.625  0.0000  0.0000  0.0000
    11DUM    Ar 1030   1.475   2.075   0.625  0.0000  0.0000  0.0000
    11DUM    Ar 1031   1.475   1.925   0.775  0.0000  0.0000  0.0000
    11DUM    Ar 1032   1.325   2.075   0.775  0.0000  0.0000  0.0000
    11DUM    Ar 1033   1.625   1.925   0.625  0.0000  0.0000  0.0000
    11DUM    Ar 1034   1.775   2.075   0.625  0.0000  0.0000  0.0000
    11DUM    Ar 1035   1.775   1.925   0.775  0.0000  0.0000  0.0000
    11DUM    Ar 1036   1.625   2.075   0.775  0.0000  0.0000  0.0000
    11DUM    Ar 1037   1.925   1.925   0.625  0.0000  0.0000  0.0000
    11DUM    Ar 1038   2.075   2.075   0.625  0.0000  0.0000  0.0000
    11DUM    Ar 1039   2.075   1.925   0.775  0.0000  0.0000  0.0000
    11DUM    Ar 1040   1.925   2.075   0.775  0.0000  0.0000  0.0000
    11DUM    Ar 1041   2.225   1.925   0.625  0.0000  0.0000  0.0000
    11DUM    Ar 1042   2.375   2.075   0.625  0.0000  0.0000  0.0000
    11DUM    Ar 1043   2.375   1.925   0.775  0.0000  0.0000  0.0000
    11DUM    Ar 1044   2.225   2.075   0.775  0.0000  0.0000  0.0000
    11DUM    Ar 1045   2.525   1.925   0.625  0.0000  0.0000  0.0000
    11DUM    Ar 1046   2.675   2.075   0.625  0.0000  0.0000  0.0000
    11DUM    Ar 1047   2.675   1.925   0.775  0.0000  0.0000  0.0000
    11DUM    Ar 1048   2.525   2.075   0.775  0.0000  0.0000  0.0000
    11DUM    Ar 1049   2.825   1.925   0.625  0.0000  0.0000  0.0000
    11DUM    Ar 1050   2.975   2.075   0.625  0.0000  0.0000  0.0000
    11DUM    Ar 1051   2.975   1.925   0.775  0.0000  0.0000  0.0000
    11DUM    Ar 1052   2.825   2.075   0.775  0.0000  0.0000  0.0000
    11DUM    Ar 1053   3.125   1.925   0.625  0.0000  0.0000  0.0000
    11DUM    Ar 1054   3.275   2.075   0.625  0.0000  0.0000  0.0000
    11DUM    Ar 1055   3.275   1.925   0.775  0.0000  0.0000  0.0000
    11DUM    Ar 1056   3.125   2.075   0.775  0.0000  0.0000  0.0000
    11DUM    Ar 1057   3.425   1.925   0.625  0.0000  0.0000  0.0000
    11DUM    Ar 1058   3.575   2.075   0.625  0.0000  0.0000  0.0000
    11DUM    Ar 1059   3.575   1.925   0.775  0.0000  0.0000  0.0000
    11DUM    Ar 1060   3.425   2.075   0.775  0.0000  0.0000  0.0000
    11DUM    Ar 1061   3.725   1.925   0.625  0.0000  0.0000  0.0000
    11DUM    Ar 1062   3.875   2.075   0.625  0.0000  0.0000  0.0000
    11DUM    Ar 1063   3.875   1.925   0.775  0.0000  0.0000  0.0000
    11DUM    Ar 1064   3.725   2.075   0.775  0.0000  0.0000  0.0000
    11DUM    Ar 1065   4.025   1.925   0.625  0.0000  0.0000  0.0000
    11DUM    Ar 1066   4.175   2.075   0.625  0.0000  0.0000  0.0000
    11DUM    Ar 1067   4.175   1.925   0.775  0.0000  0.0000  0.0000
    11DUM    Ar 1068   4.025   2.075   0.775  0.0000  0.0000  0.0000
    11DUM    Ar 1069  -0.175   2.225   0.625  0.0000  0.0000  0.0000
    11DUM    Ar 1070  -0.025   2.375   0.625  0.0000  0.0000  0.0000
    11DUM    Ar 1071  -0.025   2.225   0.775  0.0000  0.0000  0.0000
    11DUM    Ar 1072  -0.175   2.375   0.775  0.0000  0.0000  0.0000
    11DUM    Ar 1073   0.125   2.225   0.625  0.0000  0.0000  0.0000
    11DUM    Ar 1074   0.275   2.375   0.625  0.0000  0.0000  0.0000
    11DUM    Ar 1075   0.275   2.225   0.775  0.0000  0.0000  0.0000
    11DUM    Ar 1076   0.125   2.375   0.775  0.0000  0.0000  0.0000
    11DUM    Ar 1077   0.425   2.225   0.625  0.0000  0.0000  0.0000
    11DUM    Ar 1078   0.575   2.375   0.625  0.0000  0.0000  0.0000
    11DUM    Ar 1079   0.575   2.225   0.775  0.0000  0.0000  0.0000
    11DUM    Ar 1080   0.425   2.375   0.775  0.0000  0.0000  0.0000
    11DUM    Ar 1081   0.725   2.225   0.625  0.0000  0.0000  0.0000
    11DUM    Ar 1082   0.875   2.375   0.625  0.0000  0.0000  0.0000
    11DUM    Ar 1083   0.875   2.225   0.775  0.0000  0.0000  0.0000
    11DUM    Ar 1084   0.725   2.375   0.775  0.0000  0.0000  0.0000
    11DUM    Ar 1085   1.025   2.225   0.625  0.0000  0.0000  0.0000
    11DUM    Ar 1086   1.175   2.375   0.625  0.0000  0.0000  0.0000
    11DUM    Ar 1087   1.175   2.225   0.775  0.0000  0.0000  0.0000
    11DUM    Ar 1088   1.025   2.375   0.775  0.0000  0.0000  0.0000
    11DUM    Ar 1089   1.325   2.225   0.625  0.0000  0.0000  0.0000
    11DUM    Ar 1090   1.475   2.375   0.625  0.0000  0.0000  0.0000
    11DUM    Ar 1091   1.475   2.225   0.775  0.0000  0.0000  0.0000
    11DUM    Ar 1092   1.325   2.375   0.775  0.0000  0.0000  0.0000
    11DUM    Ar 1093   1.625   2.225   0.625  0.0000  0.0000  0.0000
    11DUM    Ar 1094   1.775   2.375   0.625  0.0000  0.0000  0.0000
    11DUM    Ar 1095   1.775   2.225   0.775  0.0000  0.0000  0.0000
    11DUM    Ar 1096   1.625   2.375   0.775  0.0000  0.0000  0.0000
    11DUM    Ar 1097   1.925   2.225   0.625  0.0000  0.0000  0.0000
    11DUM    Ar 1098   2.075   2.375   0.625  0.0000  0.0000  0.0000
    11DUM    Ar 1099   2.075   2.225   0.775  0.0000  0.0000  0.0000
    11DUM    Ar 1100   1.925   2.375   0.775  0.0000  0.0000  0.0000
    11DUM    Ar 1101   2.225   2.225   0.625  0.0000  0.0000  0.0000
    11DUM    Ar 1102   2.375   2.375   0.625  0.0000  0.0000  0.0000
    11DUM    Ar 1103   2.375   2.225   0.775  0.0000  0.0000  0.0000
    11DUM    Ar 1104   2.225   2.375   0.775  0.0000  0.0000  0.0000
    11DUM    Ar 1105   2.525   2.225   0.625  0.0000  0.0000  0.0000
    11DUM    Ar 1106   2.675   2.375   0.625  0.0000  0.0000  0.0000
    11DUM    Ar 1107   2.675   2.225   0.775  0.0000  0.0000  0.0000
    11DUM    Ar 1108   2.525   2.375   0.775  0.0000  0.0000  0.0000
    11DUM    Ar 1109   2.825   2.225   0.625  0.0000  0.0000  0.0000
    11DUM    Ar 1110   2.975   2.375   0.625  0.0000  0.0000  0.0000
    11DUM    Ar 1111   2.975   2.225   0.775  0.0000  0.0000  0.0000
    11DUM    Ar 1112   2.825   2.375   0.775  0.0000  0.0000  0.0000
    11DUM    Ar 1113   3.125   2.225   0.625  0.0000  0.0000  0.0000
    11DUM    Ar 1114   3.275   2.375   0.625  0.0000  0.0000  0.0000
    11DUM    Ar 1115   3.275   2.225   0.775  0.0000  0.0000  0.0000
    11DUM    Ar 1116   3.125   2.375   0.775  0.0000  0.0000  0.0000
    11DUM    Ar 1117   3.425   2.225   0.625  0.0000  0.0000  0.0000
    11DUM    Ar 1118   3.575   2.375   0.625  0.0000  0.0000  0.0000
    11DUM    Ar 1119   3.575   2.225   0.775  0.0000  0.0000  0.0000
    11DUM    Ar 1120   3.425   2.375   0.775  0.0000  0.0000  0.0000
    11DUM    Ar 1121   3.725   2.225   0.625  0.0000  0.0000  0.0000
    11DUM    Ar 1122   3.875   2.375   0.625  0.0000  0.0000  0.0000
    11DUM    Ar 1123   3.875   2.225   0.775  0.0000  0.0000  0.0000
    11DUM    Ar 1124   3.725   2.375   0.775  0.0000  0.0000  0.0000
    11DUM    Ar 1125   4.025   2.225   0.625  0.0000  0.0000  0.0000
    11DUM    Ar 1126   4.175   2.375   0.625  0.0000  0.0000  0.0000
    11DUM    Ar 1127   4.175   2.225   0.775  0.0000  0.0000  0.0000
    11DUM    Ar 1128   4.025   2.375   0.775  0.0000  0.0000  0.0000
    11DUM    Ar 1129  -0.175   2.525   0.625  0.0000  0.0000  0.0000
    11DUM    Ar 1130  -0.025   2.675   0.625  0.0000  0.0000  0.0000
    11DUM    Ar 1131  -0.025   2.525   0.775  0.0000  0.0000  0.0000
    11DUM    Ar 1132  -0.175   2.675   0.775  0.0000  0.0000  0.0000
    11DUM    Ar 1133   0.125   2.525   0.625  0.0000  0.0000  0.0000
    11DUM    Ar 1134   0.275   2.675   0.625  0.0000  0.0000  0.0000
    11DUM    Ar 1135   0.275   2.525   0.775  0.0000  0.0000  0.0000
    11DUM    Ar 1136   0.125   2.675   0.775  0.0000  0.0000  0.0000
    11DUM    Ar 1137   0.425   2.525   0.625  0.0000  0.0000  0.0000
    11DUM    Ar 1138   0.575   2.525   0.775  0.0000  0.0000  0.0000
    11DUM    Ar 1139   0.425   2.675   0.775  0.0000  0.0000  0.0000
    11DUM    Ar 1140   1.475   2.525   0.775  0.0000  0.0000  0.0000
    11DUM    Ar 1141   1.625   2.525   0.625  0.0000  0.0000  0.0000
    11DUM    Ar 1142   1.775   2.675   0.625  0.0000  0.0000  0.0000
    11DUM    Ar 1143   1.775   2.525   0.775  0.0000  0.0000  0.0000
    11DUM    Ar 1144   1.625   2.675   0.775  0.0000  0.0000  0.0000
    11DUM    Ar 1145   1.925   2.525   0.625  0.0000  0.0000  0.0000
    11DUM    Ar 1146   2.075   2.675   0.625  0.0000  0.0000  0.0000
    11DUM    Ar 1147   2.075   2.525   0.775  0.0000  0.0000  0.0000
    11DUM    Ar 1148   1.925   2.675   0.775  0.0000  0.0000  0.0000
    11DUM    Ar 1149   2.225   2.525   0.625  0.0000  0.0000  0.0000
    11DUM    Ar 1150   2.375   2.675   0.625  0.0000  0.0000  0.0000
    11DUM    Ar 1151   2.375   2.525   0.775  0.0000  0.0000  0.0000
    11DUM    Ar 1152   2.225   2.675   0.775  0.0000  0.0000  0.0000
    11DUM    Ar 1153   2.525   2.525   0.625  0.0000  0.0000  0.0000
    11DUM    Ar 1154   3.425   2.525   0.625  0.0000  0.0000  0.0000
    11DUM    Ar 1155   3.575   2.675   0.625  0.0000  0.0000  0.0000
    11DUM    Ar 1156   3.575   2.525   0.775  0.0000  0.0000  0.0000
    11DUM    Ar 1157   3.725   2.525   0.625  0.0000  0.0000  0.0000
    11DUM    Ar 1158   3.875   2.675   0.625  0.0000  0.0000  0.0000
    11DUM    Ar 1159   3.875   2.525   0.775  0.0000  0.0000  0.0000
    11DUM    Ar 1160   3.725   2.675   0.775  0.0000  0.0000  0.0000
    11DUM    Ar 1161   4.025   2.525   0.625  0.0000  0.0000  0.0000
    11DUM    Ar 1162   4.175   2.675   0.625  0.0000  0.0000  0.0000
    11DUM    Ar 1163   4.175   2.525   0.775  0.0000  0.0000  0.0000
    11DUM    Ar 1164   4.025   2.675   0.775  0.0000  0.0000  0.0000
    11DUM    Ar 1165  -0.175   2.825   0.625  0.0000  0.0000  0.0000
    11DUM    Ar 1166  -0.025   2.975   0.625  0.0000  0.0000  0.0000
    11DUM    Ar 1167  -0.025   2.825   0.775  0.0000  0.0000  0.0000
    11DUM    Ar 1168  -0.175   2.975   0.775  0.0000  0.0000  0.0000
    11DUM    Ar 1169   0.125   2.825   0.625  0.0000  0.0000  0.0000
    11DUM    Ar 1170   0.275   2.975   0.625  0.0000  0.0000  0.0000
    11DUM    Ar 1171   0.275   2.825   0.775  0.0000  0.0000  0.0000
    11DUM    Ar 1172   0.125   2.975   0.775  0.0000  0.0000  0.0000
    11DUM    Ar 1173   1.625   2.825   0.625  0.0000  0.0000  0.0000
    11DUM    Ar 1174   1.775   2.975   0.625  0.0000  0.0000  0.0000
    11DUM    Ar 1175   1.775   2.825   0.775  0.0000  0.0000  0.0000
    11DUM    Ar 1176   1.625   2.975   0.775  0.0000  0.0000  0.0000
    11DUM    Ar 1177   1.925   2.825   0.625  0.0000  0.0000  0.0000
    11DUM    Ar 1178   2.075   2.975   0.625  0.0000  0.0000  0.0000
    11DUM    Ar 1179   2.075   2.825   0.775  0.0000  0.0000  0.0000
    11DUM    Ar 1180   1.925   2.975   0.775  0.0000  0.0000  0.0000
    11DUM    Ar 1181   2.225   2.825   0.625  0.0000  0.0000  0.0000
    11DUM    Ar 1182   2.375   2.975   0.625  0.0000  0.0000  0.0000
    11DUM    Ar 1183   2.375   2.825   0.775  0.0000  0.0000  0.0000
    11DUM    Ar 1184   2.225   2.975   0.775  0.0000  0.0000  0.0000
    11DUM    Ar 1185   3.725   2.825   0.625  0.0000  0.0000  0.0000
    11DUM    Ar 1186   3.875   2.975   0.625  0.0000  0.0000  0.0000
    11DUM    Ar 1187   3.875   2.825   0.775  0.0000  0.0000  0.0000
    11DUM    Ar 1188   3.725   2.975   0.775  0.0000  0.0000  0.0000
    11DUM    Ar 1189   4.025   2.825   0.625  0.0000  0.0000  0.0000
    11DUM    Ar 1190   4.175   2.975   0.625  0.0000  0.0000  0.0000
    11DUM    Ar 1191   4.175   2.825   0.775  0.0000  0.0000  0.0000
    11DUM    Ar 1192   4.025   2.975   0.775  0.0000  0.0000  0.0000
    11DUM    Ar 1193  -0.175   3.125   0.625  0.0000  0.0000  0.0000
    11DUM    Ar 1194  -0.025   3.275   0.625  0.0000  0.0000  0.0000
    11DUM    Ar 1195  -0.025   3.125   0.775  0.0000  0.0000  0.0000
    11DUM    Ar 1196  -0.175   3.275   0.775  0.0000  0.0000  0.0000
    11DUM    Ar 1197   0.125   3.125   0.625  0.0000  0.0000  0.0000
    11DUM    Ar 1198   0.275   3.275   0.625  0.0000  0.0000  0.0000
    11DUM    Ar 1199   0.275   3.125   0.775  0.0000  0.0000  0.0000
    11DUM    Ar 1200   0.125   3.275   0.775  0.0000  0.0000  0.0000
    11DUM    Ar 1201   0.425   3.275   0.775  0.0000  0.0000  0.0000
    11DUM    Ar 1202   1.625   3.125   0.625  0.0000  0.0000  0.0000
    11DUM    Ar 1203   1.775   3.275   0.625  0.0000  0.0000  0.0000
    11DUM    Ar 1204   1.775   3.125   0.775  0.0000  0.0000  0.0000
    11DUM    Ar 1205   1.625   3.275   0.775  0.0000  0.0000  0.0000
    11DUM    Ar 1206   1.925   3.125   0.625  0.0000  0.0000  0.0000
    11DUM    Ar 1207   2.075   3.275   0.625  0.0000  0.0000  0.0000
    11DUM    Ar 1208   2.075   3.125   0.775  0.0000  0.0000  0.0000
    11DUM    Ar 1209   1.925   3.275   0.775  0.0000  0.0000  0.0000
    11DUM    Ar 1210   2.225   3.125   0.625  0.0000  0.0000  0.0000
    11DUM    Ar 1211   2.375   3.275   0.625  0.0000  0.0000  0.0000
    11DUM    Ar 1212   2.375   3.125   0.775  0.0000  0.0000  0.0000
    11DUM    Ar 1213   2.225   3.275   0.775  0.0000  0.0000  0.0000
    11DUM    Ar 1214   3.575   3.275   0.625  0.0000  0.0000  0.0000
    11DUM    Ar 1215   3.725   3.125   0.625  0.0000  0.0000  0.0000
    11DUM    Ar 1216   3.875   3.275   0.625  0.0000  0.0000  0.0000
    11DUM    Ar 1217   3.875   3.125   0.775  0.0000  0.0000  0.0000
    11DUM    Ar 1218   3.725   3.275   0.775  0.0000  0.0000  0.0000
    11DUM    Ar 1219   4.025   3.125   0.625  0.0000  0.0000  0.0000
    11DUM    Ar 1220   4.175   3.275   0.625  0.0000  0.0000  0.0000
    11DUM    Ar 1221   4.175   3.125   0.775  0.0000  0.0000  0.0000
    11DUM    Ar 1222   4.025   3.275   0.775  0.0000  0.0000  0.0000
    11DUM    Ar 1223  -0.175   3.425   0.625  0.0000  0.0000  0.0000
    11DUM    Ar 1224  -0.025   3.575   0.625  0.0000  0.0000  0.0000
    11DUM    Ar 1225  -0.025   3.425   0.775  0.0000  0.0000  0.0000
    11DUM    Ar 1226  -0.175   3.575   0.775  0.0000  0.0000  0.0000
    11DUM    Ar 1227   0.125   3.425   0.625  0.0000  0.0000  0.0000
    11DUM    Ar 1228   0.275   3.575   0.625  0.0000  0.0000  0.0000
    11DUM    Ar 1229   0.275   3.425   0.775  0.0000  0.0000  0.0000
    11DUM    Ar 1230   0.125   3.575   0.775  0.0000  0.0000  0.0000
    11DUM    Ar 1231   0.425   3.425   0.625  0.0000  0.0000  0.0000
    11DUM    Ar 1232   0.575   3.575   0.625  0.0000  0.0000  0.0000
    11DUM    Ar 1233   0.425   3.575   0.775  0.0000  0.0000  0.0000
    11DUM    Ar 1234   0.725   3.575   0.775  0.0000  0.0000  0.0000
    11DUM    Ar 1235   1.475   3.575   0.625  0.0000  0.0000  0.0000
    11DUM    Ar 1236   1.475   3.425   0.775  0.0000  0.0000  0.0000
    11DUM    Ar 1237   1.325   3.575   0.775  0.0000  0.0000  0.0000
    11DUM    Ar 1238   1.625   3.425   0.625  0.0000  0.0000  0.0000
    11DUM    Ar 1239   1.775   3.575   0.625  0.0000  0.0000  0.0000
    11DUM    Ar 1240   1.775   3.425   0.775  0.0000  0.0000  0.0000
    11DUM    Ar 1241   1.625   3.575   0.775  0.0000  0.0000  0.0000
    11DUM    Ar 1242   1.925   3.425   0.625  0.0000  0.0000  0.0000
    11DUM    Ar 1243   2.075   3.575   0.625  0.0000  0.0000  0.0000
    11DUM    Ar 1244   2.075   3.425   0.775  0.0000  0.0000  0.0000
    11DUM    Ar 1245   1.925   3.575   0.775  0.0000  0.0000  0.0000
    11DUM    Ar 1246   2.225   3.425   0.625  0.0000  0.0000  0.0000
    11DUM    Ar 1247   2.375   3.575   0.625  0.0000  0.0000  0.0000
    11DUM    Ar 1248   2.375   3.425   0.775  0.0000  0.0000  0.0000
    11DUM    Ar 1249   2.225   3.575   0.775  0.0000  0.0000  0.0000
    11DUM    Ar 1250   2.525   3.425   0.625  0.0000  0.0000  0.0000
    11DUM    Ar 1251   2.675   3.575   0.625  0.0000  0.0000  0.0000
    11DUM    Ar 1252   2.525   3.575   0.775  0.0000  0.0000  0.0000
    11DUM    Ar 1253   3.275   3.575   0.625  0.0000  0.0000  0.0000
    11DUM    Ar 1254   3.575   3.575   0.625  0.0000  0.0000  0.0000
    11DUM    Ar 1255   3.575   3.425   0.775  0.0000  0.0000  0.0000
    11DUM    Ar 1256   3.425   3.575   0.775  0.0000  0.0000  0.0000
    11DUM    Ar 1257   3.725   3.425   0.625  0.0000  0.0000  0.0000
    11DUM    Ar 1258   3.875   3.575   0.625  0.0000  0.0000  0.0000
    11DUM    Ar 1259   3.875   3.425   0.775  0.0000  0.0000  0.0000
    11DUM    Ar 1260   3.725   3.575   0.775  0.0000  0.0000  0.0000
    11DUM    Ar 1261   4.025   3.425   0.625  0.0000  0.0000  0.0000
    11DUM    Ar 1262   4.175   3.575   0.625  0.0000  0.0000  0.0000
    11DUM    Ar 1263   4.175   3.425   0.775  0.0000  0.0000  0.0000
    11DUM    Ar 1264   4.025   3.575   0.775  0.0000  0.0000  0.0000
    11DUM    Ar 1265  -0.175   3.725   0.625  0.0000  0.0000  0.0000
    11DUM    Ar 1266  -0.025   3.875   0.625  0.0000  0.0000  0.0000
    11DUM    Ar 1267  -0.025   3.725   0.775  0.0000  0.0000  0.0000
    11DUM    Ar 1268  -0.175   3.875   0.775  0.0000  0.0000  0.0000
    11DUM    Ar 1269   0.125   3.725   0.625  0.0000  0.0000  0.0000
    11DUM    Ar 1270   0.275   3.875   0.625  0.0000  0.0000  0.0000
    11DUM    Ar 1271   0.275   3.725   0.775  0.0000  0.0000  0.0000
    11DUM    Ar 1272   0.125   3.875   0.775  0.0000  0.0000  0.0000
    11DUM    Ar 1273   0.425   3.725   0.625  0.0000  0.0000  0.0000
    11DUM    Ar 1274   0.575   3.875   0.625  0.0000  0.0000  0.0000
    11DUM    Ar 1275   0.575   3.725   0.775  0.0000  0.0000  0.0000
    11DUM    Ar 1276   0.425   3.875   0.775  0.0000  0.0000  0.0000
    11DUM    Ar 1277   0.725   3.725   0.625  0.0000  0.0000  0.0000
    11DUM    Ar 1278   0.875   3.875   0.625  0.0000  0.0000  0.0000
    11DUM    Ar 1279   0.875   3.725   0.775  0.0000  0.0000  0.0000
    11DUM    Ar 1280   0.725   3.875   0.775  0.0000  0.0000  0.0000
    11DUM    Ar 1281   1.025   3.725   0.625  0.0000  0.0000  0.0000
    11DUM    Ar 1282   1.175   3.875   0.625  0.0000  0.0000  0.0000
    11DUM    Ar 1283   1.175   3.725   0.775  0.0000  0.0000  0.0000
    11DUM    Ar 1284   1.025   3.875   0.775  0.0000  0.0000  0.0000
    11DUM    Ar 1285   1.325   3.725   0.625  0.0000  0.0000  0.0000
    11DUM    Ar 1286   1.475   3.875   0.625  0.0000  0.0000  0.0000
    11DUM    Ar 1287   1.475   3.725   0.775  0.0000  0.0000  0.0000
    11DUM    Ar 1288   1.325   3.875   0.775  0.0000  0.0000  0.0000
    11DUM    Ar 1289   1.625   3.725   0.625  0.0000  0.0000  0.0000
    11DUM    Ar 1290   1.775   3.875   0.625  0.0000  0.0000  0.0000
    11DUM    Ar 1291   1.775   3.725   0.775  0.0000  0.0000  0.0000
    11DUM    Ar 1292   1.625   3.875   0.775  0.0000  0.0000  0.0000
    11DUM    Ar 1293   1.925   3.725   0.625  0.0000  0.0000  0.0000
    11DUM    Ar 1294   2.075   3.875   0.625  0.0000  0.0000  0.0000
    11DUM    Ar 1295   2.075   3.725   0.775  0.0000  0.0000  0.0000
    11DUM    Ar 1296   1.925   3.875   0.775  0.0000  0.0000  0.0000
    11DUM    Ar 1297   2.225   3.725   0.625  0.0000  0.0000  0.0000
    11DUM    Ar 1298   2.375   3.875   0.625  0.0000  0.0000  0.0000
    11DUM    Ar 1299   2.375   3.725   0.775  0.0000  0.0000  0.0000
    11DUM    Ar 1300   2.225   3.875   0.775  0.0000  0.0000  0.0000
    11DUM    Ar 1301   2.525   3.725   0.625  0.0000  0.0000  0.0000
    11DUM    Ar 1302   2.675   3.875   0.625  0.0000  0.0000  0.0000
    11DUM    Ar 1303   2.675   3.725   0.775  0.0000  0.0000  0.0000
    11DUM    Ar 1304   2.525   3.875   0.775  0.0000  0.0000  0.0000
    11DUM    Ar 1305   2.825   3.725   0.625  0.0000  0.0000  0.0000
    11DUM    Ar 1306   2.975   3.875   0.625  0.0000  0.0000  0.0000
    11DUM    Ar 1307   2.975   3.725   0.775  0.0000  0.0000  0.0000
    11DUM    Ar 1308   2.825   3.875   0.775  0.0000  0.0000  0.0000
    11DUM    Ar 1309   3.125   3.725   0.625  0.0000  0.0000  0.0000
    11DUM    Ar 1310   3.275   3.875   0.625  0.0000  0.0000  0.0000
    11DUM    Ar 1311   3.275   3.725   0.775  0.0000  0.0000  0.0000
    11DUM    Ar 1312   3.125   3.875   0.775  0.0000  0.0000  0.0000
    11DUM    Ar 1313   3.425   3.725   0.625  0.0000  0.0000  0.0000
    11DUM    Ar 1314   3.575   3.875   0.625  0.0000  0.0000  0.0000
    11DUM    Ar 1315   3.575   3.725   0.775  0.0000  0.0000  0.0000
    11DUM    Ar 1316   3.425   3.875   0.775  0.0000  0.0000  0.0000
    11DUM    Ar 1317   3.725   3.725   0.625  0.0000  0.0000  0.0000
    11DUM    Ar 1318   3.875   3.875   0.625  0.0000  0.0000  0.0000
    11DUM    Ar 1319   3.875   3.725   0.775  0.0000  0.0000  0.0000
    11DUM    Ar 1320   3.725   3.875   0.775  0.0000  0.0000  0.0000
    11DUM    Ar 1321   4.025   3.725   0.625  0.0000  0.0000  0.0000
    11DUM    Ar 1322   4.175   3.875   0.625  0.0000  0.0000  0.0000
    11DUM    Ar 1323   4.175   3.725   0.775  0.0000  0.0000  0.0000
    11DUM    Ar 1324   4.025   3.875   0.775  0.0000  0.0000  0.0000
    11DUM    Ar 1325  -0.175   4.025   0.625  0.0000  0.0000  0.0000
    11DUM    Ar 1326  -0.025   4.175   0.625  0.0000  0.0000  0.0000
    11DUM    Ar 1327  -0.025   4.025   0.775  0.0000  0.0000  0.0000
    11DUM    Ar 1328  -0.175   4.175   0.775  0.0000  0.0000  0.0000
    11DUM    Ar 1329   0.125   4.025   0.625  0.0000  0.0000  0.0000
    11DUM    Ar 1330   0.275   4.175   0.625  0.0000  0.0000  0.0000
    11DUM    Ar 1331   0.275   4.025   0.775  0.0000  0.0000  0.0000
    11DUM    Ar 1332   0.125   4.175   0.775  0.0000  0.0000  0.0000
    11DUM    Ar 1333   0.425   4.025   0.625  0.0000  0.0000  0.0000
    11DUM    Ar 1334   0.575   4.175   0.625  0.0000  0.0000  0.0000
    11DUM    Ar 1335   0.575   4.025   0.775  0.0000  0.0000  0.0000
    11DUM    Ar 1336   0.425   4.175   0.775  0.0000  0.0000  0.0000
    11DUM    Ar 1337   0.725   4.025   0.625  0.0000  0.0000  0.0000
    11DUM    Ar 1338   0.875   4.175   0.625  0.0000  0.0000  0.0000
    11DUM    Ar 1339   0.875   4.025   0.775  0.0000  0.0000  0.0000
    11DUM    Ar 1340   0.725   4.175   0.775  0.0000  0.0000  0.0000
    11DUM    Ar 1341   1.025   4.025   0.625  0.0000  0.0000  0.0000
    11DUM    Ar 1342   1.175   4.175   0.625  0.0000  0.0000  0.0000
    11DUM    Ar 1343   1.175   4.025   0.775  0.0000  0.0000  0.0000
    11DUM    Ar 1344   1.025   4.175   0.775  0.0000  0.0000  0.0000
    11DUM    Ar 1345   1.325   4.025   0.625  0.0000  0.0000  0.0000
    11DUM    Ar 1346   1.475   4.175   0.625  0.0000  0.0000  0.0000
    11DUM    Ar 1347   1.475   4.025   0.775  0.0000  0.0000  0.0000
    11DUM    Ar 1348   1.325   4.175   0.775  0.0000  0.0000  0.0000
    11DUM    Ar 1349   1.625   4.025   0.625  0.0000  0.0000  0.0000
    11DUM    Ar 1350   1.775   4.175   0.625  0.0000  0.0000  0.0000
    11DUM    Ar 1351   1.775   4.025   0.775  0.0000  0.0000  0.0000
    11DUM    Ar 1352   1.625   4.175   0.775  0.0000  0.0000  0.0000
    11DUM    Ar 1353   1.925   4.025   0.625  0.0000  0.0000  0.0000
    11DUM    Ar 1354   2.075   4.175   0.625  0.0000  0.0000  0.0000
    11DUM    Ar 1355   2.075   4.025   0.775  0.0000  0.0000  0.0000
    11DUM    Ar 1356   1.925   4.175   0.775  0.0000  0.0000  0.0000
    11DUM    Ar 1357   2.225   4.025   0.625  0.0000  0.0000  0.0000
    11DUM    Ar 1358   2.375   4.175   0.625  0.0000  0.0000  0.0000
    11DUM    Ar 1359   2.375   4.025   0.775  0.0000  0.0000  0.0000
    11DUM    Ar 1360   2.225   4.175   0.775  0.0000  0.0000  0.0000
    11DUM    Ar 1361   2.525   4.025   0.625  0.0000  0.0000  0.0000
    11DUM    Ar 1362   2.675   4.175   0.625  0.0000  0.0000  0.0000
    11DUM    Ar 1363   2.675   4.025   0.775  0.0000  0.0000  0.0000
    11DUM    Ar 1364   2.525   4.175   0.775  0.0000  0.0000  0.0000
    11DUM    Ar 1365   2.825   4.025   0.625  0.0000  0.0000  0.0000
    11DUM    Ar 1366   2.975   4.175   0.625  0.0000  0.0000  0.0000
    11DUM    Ar 1367   2.975   4.025   0.775  0.0000  0.0000  0.0000
    11DUM    Ar 1368   2.825   4.175   0.775  0.0000  0.0000  0.0000
    11DUM    Ar 1369   3.125   4.025   0.625  0.0000  0.0000  0.0000
    11DUM    Ar 1370   3.275   4.175   0.625  0.0000  0.0000  0.0000
    11DUM    Ar 1371   3.275   4.025   0.775  0.0000  0.0000  0.0000
    11DUM    Ar 1372   3.125   4.175   0.775  0.0000  0.0000  0.0000
    11DUM    Ar 1373   3.425   4.025   0.625  0.0000  0.0000  0.0000
    11DUM    Ar 1374   3.575   4.175   0.625  0.0000  0.0000  0.0000
    11DUM    Ar 1375   3.575   4.025   0.775  0.0000  0.0000  0.0000
    11DUM    Ar 1376   3.425   4.175   0.775  0.0000  0.0000  0.0000
    11DUM    Ar 1377   3.725   4.025   0.625  0.0000  0.0000  0.0000
    11DUM    Ar 1378   3.875   4.175   0.625  0.0000  0.0000  0.0000
    11DUM    Ar 1379   3.875   4.025   0.775  0.0000  0.0000  0.0000
    11DUM    Ar 1380   3.725   4.175   0.775  0.0000  0.0000  0.0000
    11DUM    Ar 1381   4.025   4.025   0.625  0.0000  0.0000  0.0000
    11DUM    Ar 1382   4.175   4.175   0.625  0.0000  0.0000  0.0000
    11DUM    Ar 1383   4.175   4.025   0.775  0.0000  0.0000  0.0000
    11DUM    Ar 1384   4.025   4.175   0.775  0.0000  0.0000  0.0000
    11DUM    Ar 1385  -0.175  -0.175   0.925  0.0000  0.0000  0.0000
    11DUM    Ar 1386  -0.025  -0.025   0.925  0.0000  0.0000  0.0000
    11DUM    Ar 1387  -0.025  -0.175   1.075  0.0000  0.0000  0.0000
    11DUM    Ar 1388  -0.175  -0.025   1.075  0.0000  0.0000  0.0000
    11DUM    Ar 1389   0.125  -0.175   0.925  0.0000  0.0000  0.0000
    11DUM    Ar 1390   0.275  -0.025   0.925  0.0000  0.0000  0.0000
    11DUM    Ar 1391   0.275  -0.175   1.075  0.0000  0.0000  0.0000
    11DUM    Ar 1392   0.125  -0.025   1.075  0.0000  0.0000  0.0000
    11DUM    Ar 1393   0.425  -0.175   0.925  0.0000  0.0000  0.0000
    11DUM    Ar 1394   0.575  -0.025   0.925  0.0000  0.0000  0.0000
    11DUM    Ar 1395   0.575  -0.175   1.075  0.0000  0.0000  0.0000
    11DUM    Ar 1396   0.425  -0.025   1.075  0.0000  0.0000  0.0000
    11DUM    Ar 1397   0.725  -0.175   0.925  0.0000  0.0000  0.0000
    11DUM    Ar 1398   0.875  -0.025   0.925  0.0000  0.0000  0.0000
    11DUM    Ar 1399   0.875  -0.175   1.075  0.0000  0.0000  0.0000
    11DUM    Ar 1400   0.725  -0.025   1.075  0.0000  0.0000  0.0000
    11DUM    Ar 1401   1.025  -0.175   0.925  0.0000  0.0000  0.0000
    11DUM    Ar 1402   1.175  -0.025   0.925  0.0000  0.0000  0.0000
    11DUM    Ar 1403   1.175  -0.175   1.075  0.0000  0.0000  0.0000
    11DUM    Ar 1404   1.025  -0.025   1.075  0.0000  0.0000  0.0000
    11DUM    Ar 1405   1.325  -0.175   0.925  0.0000  0.0000  0.0000
    11DUM    Ar 1406   1.475  -0.025   0.925  0.0000  0.0000  0.0000
    11DUM    Ar 1407   1.475  -0.175   1.075  0.0000  0.0000  0.0000
    11DUM    Ar 1408   1.325  -0.025   1.075  0.0000  0.0000  0.0000
    11DUM    Ar 1409   1.625  -0.175   0.925  0.0000  0.0000  0.0000
    11DUM    Ar 1410   1.775  -0.025   0.925  0.0000  0.0000  0.0000
    11DUM    Ar 1411   1.775  -0.175   1.075  0.0000  0.0000  0.0000
    11DUM    Ar 1412   1.625  -0.025   1.075  0.0000  0.0000  0.0000
    11DUM    Ar 1413   1.925  -0.175   0.925  0.0000  0.0000  0.0000
    11DUM    Ar 1414   2.075  -0.025   0.925  0.0000  0.0000  0.0000
    11DUM    Ar 1415   2.075  -0.175   1.075  0.0000  0.0000  0.0000
    11DUM    Ar 1416   1.925  -0.025   1.075  0.0000  0.0000  0.0000
    11DUM    Ar 1417   2.225  -0.175   0.925  0.0000  0.0000  0.0000
    11DUM    Ar 1418   2.375  -0.025   0.925  0.0000  0.0000  0.0000
    11DUM    Ar 1419   2.375  -0.175   1.075  0.0000  0.0000  0.0000
    11DUM    Ar 1420   2.225  -0.025   1.075  0.0000  0.0000  0.0000
    11DUM    Ar 1421   2.525  -0.175   0.925  0.0000  0.0000  0.0000
    11DUM    Ar 1422   2.675  -0.025   0.925  0.0000  0.0000  0.0000
    11DUM    Ar 1423   2.675  -0.175   1.075  0.0000  0.0000  0.0000
    11DUM    Ar 1424   2.525  -0.025   1.075  0.0000  0.0000  0.0000
    11DUM    Ar 1425   2.825  -0.175   0.925  0.0000  0.0000  0.0000
    11DUM    Ar 1426   2.975  -0.025   0.925  0.0000  0.0000  0.0000
    11DUM    Ar 1427   2.975  -0.175   1.075  0.0000  0.0000  0.0000
    11DUM    Ar 1428   2.825  -0.025   1.075  0.0000  0.0000  0.0000
    11DUM    Ar 1429   3.125  -0.175   0.925  0.0000  0.0000  0.0000
    11DUM    Ar 1430   3.275  -0.025   0.925  0.0000  0.0000  0.0000
    11DUM    Ar 1431   3.275  -0.175   1.075  0.0000  0.0000  0.0000
    11DUM    Ar 1432   3.125  -0.025   1.075  0.0000  0.0000  0.0000
    11DUM    Ar 1433   3.425  -0.175   0.925  0.0000  0.0000  0.0000
    11DUM    Ar 1434   3.575  -0.025   0.925  0.0000  0.0000  0.0000
    11DUM    Ar 1435   3.575  -0.175   1.075  0.0000  0.0000  0.0000
    11DUM    Ar 1436   3.425  -0.025   1.075  0.0000  0.0000  0.0000
    11DUM    Ar 1437   3.725  -0.175   0.925  0.0000  0.0000  0.0000
    11DUM    Ar 1438   3.875  -0.025   0.925  0.0000  0.0000  0.0000
    11DUM    Ar 1439   3.875  -0.175   1.075  0.0000  0.0000  0.0000
    11DUM    Ar 1440   3.725  -0.025   1.075  0.0000  0.0000  0.0000
    11DUM    Ar 1441   4.025  -0.175   0.925  0.0000  0.0000  0.0000
    11DUM    Ar 1442   4.175  -0.025   0.925  0.0000  0.0000  0.0000
    11DUM    Ar 1443   4.175  -0.175   1.075  0.0000  0.0000  0.0000
    11DUM    Ar 1444   4.025  -0.025   1.075  0.0000  0.0000  0.0000
    11DUM    Ar 1445  -0.175   0.125   0.925  0.0000  0.0000  0.0000
    11DUM    Ar 1446  -0.025   0.275   0.925  0.0000  0.0000  0.0000
    11DUM    Ar 1447  -0.025   0.125   1.075  0.0000  0.0000  0.0000
    11DUM    Ar 1448  -0.175   0.275   1.075  0.0000  0.0000  0.0000
    11DUM    Ar 1449   0.125   0.125   0.925  0.0000  0.0000  0.0000
    11DUM    Ar 1450   0.275   0.275   0.925  0.0000  0.0000  0.0000
    11DUM    Ar 1451   0.275   0.125   1.075  0.0000  0.0000  0.0000
    11DUM    Ar 1452   0.125   0.275   1.075  0.0000  0.0000  0.0000
    11DUM    Ar 1453   0.425   0.125   0.925  0.0000  0.0000  0.0000
    11DUM    Ar 1454   0.575   0.275   0.925  0.0000  0.0000  0.0000
    11DUM    Ar 1455   0.575   0.125   1.075  0.0000  0.0000  0.0000
    11DUM    Ar 1456   0.425   0.275   1.075  0.0000  0.0000  0.0000
    11DUM    Ar 1457   0.725   0.125   0.925  0.0000  0.0000  0.0000
    11DUM    Ar 1458   0.875   0.275   0.925  0.0000  0.0000  0.0000
    11DUM    Ar 1459   0.875   0.125   1.075  0.0000  0.0000  0.0000
    11DUM    Ar 1460   0.725   0.275   1.075  0.0000  0.0000  0.0000
    11DUM    Ar 1461   1.025   0.125   0.925  0.0000  0.0000  0.0000
    11DUM    Ar 1462   1.175   0.275   0.925  0.0000  0.0000  0.0000
    11DUM    Ar 1463   1.175   0.125   1.075  0.0000  0.0000  0.0000
    11DUM    Ar 1464   1.025   0.275   1.075  0.0000  0.0000  0.0000
    11DUM    Ar 1465   1.325   0.125   0.925  0.0000  0.0000  0.0000
    11DUM    Ar 1466   1.475   0.275   0.925  0.0000  0.0000  0.0000
    11DUM    Ar 1467   1.475   0.125   1.075  0.0000  0.0000  0.0000
    11DUM    Ar 1468   1.325   0.275   1.075  0.0000  0.0000  0.0000
    11DUM    Ar 1469   1.625   0.125   0.925  0.0000  0.0000  0.0000
    11DUM    Ar 1470   1.775   0.275   0.925  0.0000  0.0000  0.0000
    11DUM    Ar 1471   1.775   0.125   1.075  0.0000  0.0000  0.0000
    11DUM    Ar 1472   1.625   0.275   1.075  0.0000  0.0000  0.0000
    11DUM    Ar 1473   1.925   0.125   0.925  0.0000  0.0000  0.0000
    11DUM    Ar 1474   2.075   0.275   0.925  0.0000  0.0000  0.0000
    11DUM    Ar 1475   2.075   0.125   1.075  0.0000  0.0000  0.0000
    11DUM    Ar 1476   1.925   0.275   1.075  0.0000  0.0000  0.0000
    11DUM    Ar 1477   2.225   0.125   0.925  0.0000  0.0000  0.0000
    11DUM    Ar 1478   2.375   0.275   0.925  0.0000  0.0000  0.0000
    11DUM    Ar 1479   2.375   0.125   1.075  0.0000  0.0000  0.0000
    11DUM    Ar 1480   2.225   0.275   1.075  0.0000  0.0000  0.0000
    11DUM    Ar 1481   2.525   0.125   0.925  0.0000  0.0000  0.0000
    11DUM    Ar 1482   2.675   0.275   0.925  0.0000  0.0000  0.0000
    11DUM    Ar 1483   2.675   0.125   1.075  0.0000  0.0000  0.0000
    11DUM    Ar 1484   2.525   0.275   1.075  0.0000  0.0000  0.0000
    11DUM    Ar 1485   2.825   0.125   0.925  0.0000  0.0000  0.0000
    11DUM    Ar 1486   2.975   0.275   0.925  0.0000  0.0000  0.0000
    11DUM    Ar 1487   2.975   0.125   1.075  0.0000  0.0000  0.0000
    11DUM    Ar 1488   2.825   0.275   1.075  0.0000  0.0000  0.0000
    11DUM    Ar 1489   3.125   0.125   0.925  0.0000  0.0000  0.0000
    11DUM    Ar 1490   3.275   0.275   0.925  0.0000  0.0000  0.0000
    11DUM    Ar 1491   3.275   0.125   1.075  0.0000  0.0000  0.0000
    11DUM    Ar 1492   3.125   0.275   1.075  0.0000  0.0000  0.0000
    11DUM    Ar 1493   3.425   0.125   0.925  0.0000  0.0000  0.0000
    11DUM    Ar 1494   3.575   0.275   0.925  0.0000  0.0000  0.0000
    11DUM    Ar 1495   3.575   0.125   1.075  0.0000  0.0000  0.0000
    11DUM    Ar 1496   3.425   0.275   1.075  0.0000  0.0000  0.0000
    11DUM    Ar 1497   3.725   0.125   0.925  0.0000  0.0000  0.0000
    11DUM    Ar 1498   3.875   0.275   0.925  0.0000  0.0000  0.0000
    11DUM    Ar 1499   3.875   0.125   1.075  0.0000  0.0000  0.0000
    11DUM    Ar 1500   3.725   0.275   1.075  0.0000  0.0000  0.0000
    11DUM    Ar 1501   4.025   0.125   0.925  0.0000  0.0000  0.0000
    11DUM    Ar 1502   4.175   0.275   0.925  0.0000  0.0000  0.0000
    11DUM    Ar 1503   4.175   0.125   1.075  0.0000  0.0000  0.0000
    11DUM    Ar 1504   4.025   0.275   1.075  0.0000  0.0000  0.0000
    11DUM    Ar 1505  -0.175   0.425   0.925  0.0000  0.0000  0.0000
    11DUM    Ar 1506  -0.025   0.575   0.925  0.0000  0.0000  0.0000
    11DUM    Ar 1507  -0.025   0.425   1.075  0.0000  0.0000  0.0000
    11DUM    Ar 1508  -0.175   0.575   1.075  0.0000  0.0000  0.0000
    11DUM    Ar 1509   0.125   0.425   0.925  0.0000  0.0000  0.0000
    11DUM    Ar 1510   0.275   0.575   0.925  0.0000  0.0000  0.0000
    11DUM    Ar 1511   0.275   0.425   1.075  0.0000  0.0000  0.0000
    11DUM    Ar 1512   0.125   0.575   1.075  0.0000  0.0000  0.0000
    11DUM    Ar 1513   0.425   0.425   0.925  0.0000  0.0000  0.0000
    11DUM    Ar 1514   0.575   0.425   1.075  0.0000  0.0000  0.0000
    11DUM    Ar 1515   0.425   0.575   1.075  0.0000  0.0000  0.0000
    11DUM    Ar 1516   0.725   0.425   0.925  0.0000  0.0000  0.0000
    11DUM    Ar 1517   1.325   0.425   0.925  0.0000  0.0000  0.0000
    11DUM    Ar 1518   1.475   0.575   0.925  0.0000  0.0000  0.0000
    11DUM    Ar 1519   1.475   0.425   1.075  0.0000  0.0000  0.0000
    11DUM    Ar 1520   1.625   0.425   0.925  0.0000  0.0000  0.0000
    11DUM    Ar 1521   1.775   0.575   0.925  0.0000  0.0000  0.0000
    11DUM    Ar 1522   1.775   0.425   1.075  0.0000  0.0000  0.0000
    11DUM    Ar 1523   1.625   0.575   1.075  0.0000  0.0000  0.0000
    11DUM    Ar 1524   1.925   0.425   0.925  0.0000  0.0000  0.0000
    11DUM    Ar 1525   2.075   0.575   0.925  0.0000  0.0000  0.0000
    11DUM    Ar 1526   2.075   0.425   1.075  0.0000  0.0000  0.0000
    11DUM    Ar 1527   1.925   0.575   1.075  0.0000  0.0000  0.0000
    11DUM    Ar 1528   2.225   0.425   0.925  0.0000  0.0000  0.0000
    11DUM    Ar 1529   2.375   0.575   0.925  0.0000  0.0000  0.0000
    11DUM    Ar 1530   2.375   0.425   1.075  0.0000  0.0000  0.0000
    11DUM    Ar 1531   2.225   0.575   1.075  0.0000  0.0000  0.0000
    11DUM    Ar 1532   2.525   0.425   0.925  0.0000  0.0000  0.0000
    11DUM    Ar 1533   2.675   0.425   1.075  0.0000  0.0000  0.0000
    11DUM    Ar 1534   2.525   0.575   1.075  0.0000  0.0000  0.0000
    11DUM    Ar 1535   3.275   0.425   1.075  0.0000  0.0000  0.0000
    11DUM    Ar 1536   3.425   0.425   0.925  0.0000  0.0000  0.0000
    11DUM    Ar 1537   3.575   0.575   0.925  0.0000  0.0000  0.0000
    11DUM    Ar 1538   3.575   0.425   1.075  0.0000  0.0000  0.0000
    11DUM    Ar 1539   3.725   0.425   0.925  0.0000  0.0000  0.0000
    11DUM    Ar 1540   3.875   0.575   0.925  0.0000  0.0000  0.0000
    11DUM    Ar 1541   3.875   0.425   1.075  0.0000  0.0000  0.0000
    11DUM    Ar 1542   3.725   0.575   1.075  0.0000  0.0000  0.0000
    11DUM    Ar 1543   4.025   0.425   0.925  0.0000  0.0000  0.0000
    11DUM    Ar 1544   4.175   0.575   0.925  0.0000  0.0000  0.0000
    11DUM    Ar 1545   4.175   0.425   1.075  0.0000  0.0000  0.0000
    11DUM    Ar 1546   4.025   0.575   1.075  0.0000  0.0000  0.0000
    11DUM    Ar 1547  -0.175   0.725   0.925  0.0000  0.0000  0.0000
    11DUM    Ar 1548  -0.025   0.875   0.925  0.0000  0.0000  0.0000
    11DUM    Ar 1549  -0.025   0.725   1.075  0.0000  0.0000  0.0000
    11DUM    Ar 1550  -0.175   0.875   1.075  0.0000  0.0000  0.0000
    11DUM    Ar 1551   0.125   0.725   0.925  0.0000  0.0000  0.0000
    11DUM    Ar 1552   0.275   0.875   0.925  0.0000  0.0000  0.0000
    11DUM    Ar 1553   0.275   0.725   1.075  0.0000  0.0000  0.0000
    11DUM    Ar 1554   0.125   0.875   1.075  0.0000  0.0000  0.0000
    11DUM    Ar 1555   0.425   0.725   0.925  0.0000  0.0000  0.0000
    11DUM    Ar 1556   1.625   0.725   0.925  0.0000  0.0000  0.0000
    11DUM    Ar 1557   1.775   0.875   0.925  0.0000  0.0000  0.0000
    11DUM    Ar 1558   1.775   0.725   1.075  0.0000  0.0000  0.0000
    11DUM    Ar 1559   1.625   0.875   1.075  0.0000  0.0000  0.0000
    11DUM    Ar 1560   1.925   0.725   0.925  0.0000  0.0000  0.0000
    11DUM    Ar 1561   2.075   0.875   0.925  0.0000  0.0000  0.0000
    11DUM    Ar 1562   2.075   0.725   1.075  0.0000  0.0000  0.0000
    11DUM    Ar 1563   1.925   0.875   1.075  0.0000  0.0000  0.0000
    11DUM    Ar 1564   2.225   0.725   0.925  0.0000  0.0000  0.0000
    11DUM    Ar 1565   2.375   0.875   0.925  0.0000  0.0000  0.0000
    11DUM    Ar 1566   2.375   0.725   1.075  0.0000  0.0000  0.0000
    11DUM    Ar 1567   2.225   0.875   1.075  0.0000  0.0000  0.0000
    11DUM    Ar 1568   3.575   0.725   1.075  0.0000  0.0000  0.0000
    11DUM    Ar 1569   3.725   0.725   0.925  0.0000  0.0000  0.0000
    11DUM    Ar 1570   3.875   0.875   0.925  0.0000  0.0000  0.0000
    11DUM    Ar 1571   3.875   0.725   1.075  0.0000  0.0000  0.0000
    11DUM    Ar 1572   3.725   0.875   1.075  0.0000  0.0000  0.0000
    11DUM    Ar 1573   4.025   0.725   0.925  0.0000  0.0000  0.0000
    11DUM    Ar 1574   4.175   0.875   0.925  0.0000  0.0000  0.0000
    11DUM    Ar 1575   4.175   0.725   1.075  0.0000  0.0000  0.0000
    11DUM    Ar 1576   4.025   0.875   1.075  0.0000  0.0000  0.0000
    11DUM    Ar 1577  -0.175   1.025   0.925  0.0000  0.0000  0.0000
    11DUM    Ar 1578  -0.025   1.175   0.925  0.0000  0.0000  0.0000
    11DUM    Ar 1579  -0.025   1.025   1.075  0.0000  0.0000  0.0000
    11DUM    Ar 1580  -0.175   1.175   1.075  0.0000  0.0000  0.0000
    11DUM    Ar 1581   0.125   1.025   0.925  0.0000  0.0000  0.0000
    11DUM    Ar 1582   0.275   1.175   0.925  0.0000  0.0000  0.0000
    11DUM    Ar 1583   0.275   1.025   1.075  0.0000  0.0000  0.0000
    11DUM    Ar 1584   0.125   1.175   1.075  0.0000  0.0000  0.0000
    11DUM    Ar 1585   1.625   1.025   0.925  0.0000  0.0000  0.0000
    11DUM    Ar 1586   1.775   1.175   0.925  0.0000  0.0000  0.0000
    11DUM    Ar 1587   1.775   1.025   1.075  0.0000  0.0000  0.0000
    11DUM    Ar 1588   1.625   1.175   1.075  0.0000  0.0000  0.0000
    11DUM    Ar 1589   1.925   1.025   0.925  0.0000  0.0000  0.0000
    11DUM    Ar 1590   2.075   1.175   0.925  0.0000  0.0000  0.0000
    11DUM    Ar 1591   2.075   1.025   1.075  0.0000  0.0000  0.0000
    11DUM    Ar 1592   1.925   1.175   1.075  0.0000  0.0000  0.0000
    11DUM    Ar 1593   2.225   1.025   0.925  0.0000  0.0000  0.0000
    11DUM    Ar 1594   2.375   1.175   0.925  0.0000  0.0000  0.0000
    11DUM    Ar 1595   2.375   1.025   1.075  0.0000  0.0000  0.0000
    11DUM    Ar 1596   2.225   1.175   1.075  0.0000  0.0000  0.0000
    11DUM    Ar 1597   3.725   1.025   0.925  0.0000  0.0000  0.0000
    11DUM    Ar 1598   3.875   1.175   0.925  0.0000  0.0000  0.0000
    11DUM    Ar 1599   3.875   1.025   1.075  0.0000  0.0000  0.0000
    11DUM    Ar 1600   3.725   1.175   1.075  0.0000  0.0000  0.0000
    11DUM    Ar 1601   4.025   1.025   0.925  0.0000  0.0000  0.0000
    11DUM    Ar 1602   4.175   1.175   0.925  0.0000  0.0000  0.0000
    11DUM    Ar 1603   4.175   1.025   1.075  0.0000  0.0000  0.0000
    11DUM    Ar 1604   4.025   1.175   1.075  0.0000  0.0000  0.0000
    11DUM    Ar 1605  -0.175   1.325   0.925  0.0000  0.0000  0.0000
    11DUM    Ar 1606  -0.025   1.475   0.925  0.0000  0.0000  0.0000
    11DUM    Ar 1607  -0.025   1.325   1.075  0.0000  0.0000  0.0000
    11DUM    Ar 1608  -0.175   1.475   1.075  0.0000  0.0000  0.0000
    11DUM    Ar 1609   0.125   1.325   0.925  0.0000  0.0000  0.0000
    11DUM    Ar 1610   0.275   1.475   0.925  0.0000  0.0000  0.0000
    11DUM    Ar 1611   0.275   1.325   1.075  0.0000  0.0000  0.0000
    11DUM    Ar 1612   0.125   1.475   1.075  0.0000  0.0000  0.0000
    11DUM    Ar 1613   0.425   1.325   0.925  0.0000  0.0000  0.0000
    11DUM    Ar 1614   0.575   1.475   0.925  0.0000  0.0000  0.0000
    11DUM    Ar 1615   0.425   1.475   1.075  0.0000  0.0000  0.0000
    11DUM    Ar 1616   1.475   1.475   0.925  0.0000  0.0000  0.0000
    11DUM    Ar 1617   1.625   1.325   0.925  0.0000  0.0000  0.0000
    11DUM    Ar 1618   1.775   1.475   0.925  0.0000  0.0000  0.0000
    11DUM    Ar 1619   1.775   1.325   1.075  0.0000  0.0000  0.0000
    11DUM    Ar 1620   1.625   1.475   1.075  0.0000  0.0000  0.0000
    11DUM    Ar 1621   1.925   1.325   0.925  0.0000  0.0000  0.0000
    11DUM    Ar 1622   2.075   1.475   0.925  0.0000  0.0000  0.0000
    11DUM    Ar 1623   2.075   1.325   1.075  0.0000  0.0000  0.0000
    11DUM    Ar 1624   1.925   1.475   1.075  0.0000  0.0000  0.0000
    11DUM    Ar 1625   2.225   1.325   0.925  0.0000  0.0000  0.0000
    11DUM    Ar 1626   2.375   1.475   0.925  0.0000  0.0000  0.0000
    11DUM    Ar 1627   2.375   1.325   1.075  0.0000  0.0000  0.0000
    11DUM    Ar 1628   2.225   1.475   1.075  0.0000  0.0000  0.0000
    11DUM    Ar 1629   2.525   1.475   1.075  0.0000  0.0000  0.0000
    11DUM    Ar 1630   3.575   1.475   0.925  0.0000  0.0000  0.0000
    11DUM    Ar 1631   3.575   1.325   1.075  0.0000  0.0000  0.0000
    11DUM    Ar 1632   3.425   1.475   1.075  0.0000  0.0000  0.0000
    11DUM    Ar 1633   3.725   1.325   0.925  0.0000  0.0000  0.0000
    11DUM    Ar 1634   3.875   1.475   0.925  0.0000  0.0000  0.0000
    11DUM    Ar 1635   3.875   1.325   1.075  0.0000  0.0000  0.0000
    11DUM    Ar 1636   3.725   1.475   1.075  0.0000  0.0000  0.0000
    11DUM    Ar 1637   4.025   1.325   0.925  0.0000  0.0000  0.0000
    11DUM    Ar 1638   4.175   1.475   0.925  0.0000  0.0000  0.0000
    11DUM    Ar 1639   4.175   1.325   1.075  0.0000  0.0000  0.0000
    11DUM    Ar 1640   4.025   1.475   1.075  0.0000  0.0000  0.0000
    11DUM    Ar 1641  -0.175   1.625   0.925  0.0000  0.0000  0.0000
    11DUM    Ar 1642  -0.025   1.775   0.925  0.0000  0.0000  0.0000
    11DUM    Ar 1643  -0.025   1.625   1.075  0.0000  0.0000  0.0000
    11DUM    Ar 1644  -0.175   1.775   1.075  0.0000  0.0000  0.0000
    11DUM    Ar 1645   0.125   1.625   0.925  0.0000  0.0000  0.0000
    11DUM    Ar 1646   0.275   1.775   0.925  0.0000  0.0000  0.0000
    11DUM    Ar 1647   0.275   1.625   1.075  0.0000  0.0000  0.0000
    11DUM    Ar 1648   0.125   1.775   1.075  0.0000  0.0000  0.0000
    11DUM    Ar 1649   0.425   1.625   0.925  0.0000  0.0000  0.0000
    11DUM    Ar 1650   0.575   1.775   0.925  0.0000  0.0000  0.0000
    11DUM    Ar 1651   0.575   1.625   1.075  0.0000  0.0000  0.0000
    11DUM    Ar 1652   0.425   1.775   1.075  0.0000  0.0000  0.0000
    11DUM    Ar 1653   0.725   1.625   0.925  0.0000  0.0000  0.0000
    11DUM    Ar 1654   0.875   1.775   0.925  0.0000  0.0000  0.0000
    11DUM    Ar 1655   0.875   1.625   1.075  0.0000  0.0000  0.0000
    11DUM    Ar 1656   0.725   1.775   1.075  0.0000  0.0000  0.0000
    11DUM    Ar 1657   1.025   1.625   0.925  0.0000  0.0000  0.0000
    11DUM    Ar 1658   1.175   1.775   0.925  0.0000  0.0000  0.0000
    11DUM    Ar 1659   1.175   1.625   1.075  0.0000  0.0000  0.0000
    11DUM    Ar 1660   1.025   1.775   1.075  0.0000  0.0000  0.0000
    11DUM    Ar 1661   1.325   1.625   0.925  0.0000  0.0000  0.0000
    11DUM    Ar 1662   1.475   1.775   0.925  0.0000  0.0000  0.0000
    11DUM    Ar 1663   1.475   1.625   1.075  0.0000  0.0000  0.0000
    11DUM    Ar 1664   1.325   1.775   1.075  0.0000  0.0000  0.0000
    11DUM    Ar 1665   1.625   1.625   0.925  0.0000  0.0000  0.0000
    11DUM    Ar 1666   1.775   1.775   0.925  0.0000  0.0000  0.0000
    11DUM    Ar 1667   1.775   1.625   1.075  0.0000  0.0000  0.0000
    11DUM    Ar 1668   1.625   1.775   1.075  0.0000  0.0000  0.0000
    11DUM    Ar 1669   1.925   1.625   0.925  0.0000  0.0000  0.0000
    11DUM    Ar 1670   2.075   1.775   0.925  0.0000  0.0000  0.0000
    11DUM    Ar 1671   2.075   1.625   1.075  0.0000  0.0000  0.0000
    11DUM    Ar 1672   1.925   1.775   1.075  0.0000  0.0000  0.0000
    11DUM    Ar 1673   2.225   1.625   0.925  0.0000  0.0000  0.0000
    11DUM    Ar 1674   2.375   1.775   0.925  0.0000  0.0000  0.0000
    11DUM    Ar 1675   2.375   1.625   1.075  0.0000  0.0000  0.0000
    11DUM    Ar 1676   2.225   1.775   1.075  0.0000  0.0000  0.0000
    11DUM    Ar 1677   2.525   1.625   0.925  0.0000  0.0000  0.0000
    11DUM    Ar 1678   2.675   1.775   0.925  0.0000  0.0000  0.0000
    11DUM    Ar 1679   2.675   1.625   1.075  0.0000  0.0000  0.0000
    11DUM    Ar 1680   2.525   1.775   1.075  0.0000  0.0000  0.0000
    11DUM    Ar 1681   2.825   1.625   0.925  0.0000  0.0000  0.0000
    11DUM    Ar 1682   2.975   1.775   0.925  0.0000  0.0000  0.0000
    11DUM    Ar 1683   2.975   1.625   1.075  0.0000  0.0000  0.0000
    11DUM    Ar 1684   2.825   1.775   1.075  0.0000  0.0000  0.0000
    11DUM    Ar 1685   3.125   1.625   0.925  0.0000  0.0000  0.0000
    11DUM    Ar 1686   3.275   1.775   0.925  0.0000  0.0000  0.0000
    11DUM    Ar 1687   3.275   1.625   1.075  0.0000  0.0000  0.0000
    11DUM    Ar 1688   3.125   1.775   1.075  0.0000  0.0000  0.0000
    11DUM    Ar 1689   3.425   1.625   0.925  0.0000  0.0000  0.0000
    11DUM    Ar 1690   3.575   1.775   0.925  0.0000  0.0000  0.0000
    11DUM    Ar 1691   3.575   1.625   1.075  0.0000  0.0000  0.0000
    11DUM    Ar 1692   3.425   1.775   1.075  0.0000  0.0000  0.0000
    11DUM    Ar 1693   3.725   1.625   0.925  0.0000  0.0000  0.0000
    11DUM    Ar 1694   3.875   1.775   0.925  0.0000  0.0000  0.0000
    11DUM    Ar 1695   3.875   1.625   1.075  0.0000  0.0000  0.0000
    11DUM    Ar 1696   3.725   1.775   1.075  0.0000  0.0000  0.0000
    11DUM    Ar 1697   4.025   1.625   0.925  0.0000  0.0000  0.0000
    11DUM    Ar 1698   4.175   1.775   0.925  0.0000  0.0000  0.0000
    11DUM    Ar 1699   4.175   1.625   1.075  0.0000  0.0000  0.0000
    11DUM    Ar 1700   4.025   1.775   1.075  0.0000  0.0000  0.0000
    11DUM    Ar 1701  -0.175   1.925   0.925  0.0000  0.0000  0.0000
    11DUM    Ar 1702  -0.025   2.075   0.925  0.0000  0.0000  0.0000
    11DUM    Ar 1703  -0.025   1.925   1.075  0.0000  0.0000  0.0000
    11DUM    Ar 1704  -0.175   2.075   1.075  0.0000  0.0000  0.0000
    11DUM    Ar 1705   0.125   1.925   0.925  0.0000  0.0000  0.0000
    11DUM    Ar 1706   0.275   2.075   0.925  0.0000  0.0000  0.0000
    11DUM    Ar 1707   0.275   1.925   1.075  0.0000  0.0000  0.0000
    11DUM    Ar 1708   0.125   2.075   1.075  0.0000  0.0000  0.0000
    11DUM    Ar 1709   0.425   1.925   0.925  0.0000  0.0000  0.0000
    11DUM    Ar 1710   0.575   2.075   0.925  0.0000  0.0000  0.0000
    11DUM    Ar 1711   0.575   1.925   1.075  0.0000  0.0000  0.0000
    11DUM    Ar 1712   0.425   2.075   1.075  0.0000  0.0000  0.0000
    11DUM    Ar 1713   0.725   1.925   0.925  0.0000  0.0000  0.0000
    11DUM    Ar 1714   0.875   2.075   0.925  0.0000  0.0000  0.0000
    11DUM    Ar 1715   0.875   1.925   1.075  0.0000  0.0000  0.0000
    11DUM    Ar 1716   0.725   2.075   1.075  0.0000  0.0000  0.0000
    11DUM    Ar 1717   1.025   1.925   0.925  0.0000  0.0000  0.0000
    11DUM    Ar 1718   1.175   2.075   0.925  0.0000  0.0000  0.0000
    11DUM    Ar 1719   1.175   1.925   1.075  0.0000  0.0000  0.0000
    11DUM    Ar 1720   1.025   2.075   1.075  0.0000  0.0000  0.0000
    11DUM    Ar 1721   1.325   1.925   0.925  0.0000  0.0000  0.0000
    11DUM    Ar 1722   1.475   2.075   0.925  0.0000  0.0000  0.0000
    11DUM    Ar 1723   1.475   1.925   1.075  0.0000  0.0000  0.0000
    11DUM    Ar 1724   1.325   2.075   1.075  0.0000  0.0000  0.0000
    11DUM    Ar 1725   1.625   1.925   0.925  0.0000  0.0000  0.0000
    11DUM    Ar 1726   1.775   2.075   0.925  0.0000  0.0000  0.0000
    11DUM    Ar 1727   1.775   1.925   1.075  0.0000  0.0000  0.0000
    11DUM    Ar 1728   1.625   2.075   1.075  0.0000  0.0000  0.0000
    11DUM    Ar 1729   1.925   1.925   0.925  0.0000  0.0000  0.0000
    11DUM    Ar 1730   2.075   2.075   0.925  0.0000  0.0000  0.0000
    11DUM    Ar 1731   2.075   1.925   1.075  0.0000  0.0000  0.0000
    11DUM    Ar 1732   1.925   2.075   1.075  0.0000  0.0000  0.0000
    11DUM    Ar 1733   2.225   1.925   0.925  0.0000  0.0000  0.0000
    11DUM    Ar 1734   2.375   2.075   0.925  0.0000  0.0000  0.0000
    11DUM    Ar 1735   2.375   1.925   1.075  0.0000  0.0000  0.0000
    11DUM    Ar 1736   2.225   2.075   1.075  0.0000  0.0000  0.0000
    11DUM    Ar 1737   2.525   1.925   0.925  0.0000  0.0000  0.0000
    11DUM    Ar 1738   2.675   2.075   0.925  0.0000  0.0000  0.0000
    11DUM    Ar 1739   2.675   1.925   1.075  0.0000  0.0000  0.0000
    11DUM    Ar 1740   2.525   2.075   1.075  0.0000  0.0000  0.0000
    11DUM    Ar 1741   2.825   1.925   0.925  0.0000  0.0000  0.0000
    11DUM    Ar 1742   2.975   2.075   0.925  0.0000  0.0000  0.0000
    11DUM    Ar 1743   2.975   1.925   1.075  0.0000  0.0000  0.0000
    11DUM    Ar 1744   2.825   2.075   1.075  0.0000  0.0000  0.0000
    11DUM    Ar 1745   3.125   1.925   0.925  0.0000  0.0000  0.0000
    11DUM    Ar 1746   3.275   2.075   0.925  0.0000  0.0000  0.0000
    11DUM    Ar 1747   3.275   1.925   1.075  0.0000  0.0000  0.0000
    11DUM    Ar 1748   3.125   2.075   1.075  0.0000  0.0000  0.0000
    11DUM    Ar 1749   3.425   1.925   0.925  0.0000  0.0000  0.0000
    11DUM    Ar 1750   3.575   2.075   0.925  0.0000  0.0000  0.0000
    11DUM    Ar 1751   3.575   1.925   1.075  0.0000  0.0000  0.0000
    11DUM    Ar 1752   3.425   2.075   1.075  0.0000  0.0000  0.0000
    11DUM    Ar 1753   3.725   1.925   0.925  0.0000  0.0000  0.0000
    11DUM    Ar 1754   3.875   2.075   0.925  0.0000  0.0000  0.0000
    11DUM    Ar 1755   3.875   1.925   1.075  0.0000  0.0000  0.0000
    11DUM    Ar 1756   3.725   2.075   1.075  0.0000  0.0000  0.0000
    11DUM    Ar 1757   4.025   1.925   0.925  0.0000  0.0000  0.0000
    11DUM    Ar 1758   4.175   2.075   0.925  0.0000  0.0000  0.0000
    11DUM    Ar 1759   4.175   1.925   1.075  0.0000  0.0000  0.0000
    11DUM    Ar 1760   4.025   2.075   1.075  0.0000  0.0000  0.0000
    11DUM    Ar 1761  -0.175   2.225   0.925  0.0000  0.0000  0.0000
    11DUM    Ar 1762  -0.025   2.375   0.925  0.0000  0.0000  0.0000
    11DUM    Ar 1763  -0.025   2.225   1.075  0.0000  0.0000  0.0000
    11DUM    Ar 1764  -0.175   2.375   1.075  0.0000  0.0000  0.0000
    11DUM    Ar 1765   0.125   2.225   0.925  0.0000  0.0000  0.0000
    11DUM    Ar 1766   0.275   2.375   0.925  0.0000  0.0000  0.0000
    11DUM    Ar 1767   0.275   2.225   1.075  0.0000  0.0000  0.0000
    11DUM    Ar 1768   0.125   2.375   1.075  0.0000  0.0000  0.0000
    11DUM    Ar 1769   0.425   2.225   0.925  0.0000  0.0000  0.0000
    11DUM    Ar 1770   0.575   2.375   0.925  0.0000  0.0000  0.0000
    11DUM    Ar 1771   0.575   2.225   1.075  0.0000  0.0000  0.0000
    11DUM    Ar 1772   0.425   2.375   1.075  0.0000  0.0000  0.0000
    11DUM    Ar 1773   0.725   2.225   0.925  0.0000  0.0000  0.0000
    11DUM    Ar 1774   0.875   2.375   0.925  0.0000  0.0000  0.0000
    11DUM    Ar 1775   0.875   2.225   1.075  0.0000  0.0000  0.0000
    11DUM    Ar 1776   0.725   2.375   1.075  0.0000  0.0000  0.0000
    11DUM    Ar 1777   1.025   2.225   0.925  0.0000  0.0000  0.0000
    11DUM    Ar 1778   1.175   2.375   0.925  0.0000  0.0000  0.0000
    11DUM    Ar 1779   1.175   2.225   1.075  0.0000  0.0000  0.0000
    11DUM    Ar 1780   1.025   2.375   1.075  0.0000  0.0000  0.0000
    11DUM    Ar 1781   1.325   2.225   0.925  0.0000  0.0000  0.0000
    11DUM    Ar 1782   1.475   2.375   0.925  0.0000  0.0000  0.0000
    11DUM    Ar 1783   1.475   2.225   1.075  0.0000  0.0000  0.0000
    11DUM    Ar 1784   1.325   2.375   1.075  0.0000  0.0000  0.0000
    11DUM    Ar 1785   1.625   2.225   0.925  0.0000  0.0000  0.0000
    11DUM    Ar 1786   1.775   2.375   0.925  0.0000  0.0000  0.0000
    11DUM    Ar 1787   1.775   2.225   1.075  0.0000  0.0000  0.0000
    11DUM    Ar 1788   1.625   2.375   1.075  0.0000  0.0000  0.0000
    11DUM    Ar 1789   1.925   2.225   0.925  0.0000  0.0000  0.0000
    11DUM    Ar 1790   2.075   2.375   0.925  0.0000  0.0000  0.0000
    11DUM    Ar 1791   2.075   2.225   1.075  0.0000  0.0000  0.0000
    11DUM    Ar 1792   1.925   2.375   1.075  0.0000  0.0000  0.0000
    11DUM    Ar 1793   2.225   2.225   0.925  0.0000  0.0000  0.0000
    11DUM    Ar 1794   2.375   2.375   0.925  0.0000  0.0000  0.0000
    11DUM    Ar 1795   2.375   2.225   1.075  0.0000  0.0000  0.0000
    11DUM    Ar 1796   2.225   2.375   1.075  0.0000  0.0000  0.0000
    11DUM    Ar 1797   2.525   2.225   0.925  0.0000  0.0000  0.0000
    11DUM    Ar 1798   2.675   2.375   0.925  0.0000  0.0000  0.0000
    11DUM    Ar 1799   2.675   2.225   1.075  0.0000  0.0000  0.0000
    11DUM    Ar 1800   2.525   2.375   1.075  0.0000  0.0000  0.0000
    11DUM    Ar 1801   2.825   2.225   0.925  0.0000  0.0000  0.0000
    11DUM    Ar 1802   2.975   2.375   0.925  0.0000  0.0000  0.0000
    11DUM    Ar 1803   2.975   2.225   1.075  0.0000  0.0000  0.0000
    11DUM    Ar 1804   2.825   2.375   1.075  0.0000  0.0000  0.0000
    11DUM    Ar 1805   3.125   2.225   0.925  0.0000  0.0000  0.0000
    11DUM    Ar 1806   3.275   2.375   0.925  0.0000  0.0000  0.0000
    11DUM    Ar 1807   3.275   2.225   1.075  0.0000  0.0000  0.0000
    11DUM    Ar 1808   3.125   2.375   1.075  0.0000  0.0000  0.0000
    11DUM    Ar 1809   3.425   2.225   0.925  0.0000  0.0000  0.0000
    11DUM    Ar 1810   3.575   2.375   0.925  0.0000  0.0000  0.0000
    11DUM    Ar 1811   3.575   2.225   1.075  0.0000  0.0000  0.0000
    11DUM    Ar 1812   3.425   2.375   1.075  0.0000  0.0000  0.0000
    11DUM    Ar 1813   3.725   2.225   0.925  0.0000  0.0000  0.0000
    11DUM    Ar 1814   3.875   2.375   0.925  0.0000  0.0000  0.0000
    11DUM    Ar 1815   3.875   2.225   1.075  0.0000  0.0000  0.0000
    11DUM    Ar 1816   3.725   2.375   1.075  0.0000  0.0000  0.0000
    11DUM    Ar 1817   4.025   2.225   0.925  0.0000  0.0000  0.0000
    11DUM    Ar 1818   4.175   2.375   0.925  0.0000  0.0000  0.0000
    11DUM    Ar 1819   4.175   2.225   1.075  0.0000  0.0000  0.0000
    11DUM    Ar 1820   4.025   2.375   1.075  0.0000  0.0000  0.0000
    11DUM    Ar 1821  -0.175   2.525   0.925  0.0000  0.0000  0.0000
    11DUM    Ar 1822  -0.025   2.675   0.925  0.0000  0.0000  0.0000
    11DUM    Ar 1823  -0.025   2.525   1.075  0.0000  0.0000  0.0000
    11DUM    Ar 1824  -0.175   2.675   1.075  0.0000  0.0000  0.0000
    11DUM    Ar 1825   0.125   2.525   0.925  0.0000  0.0000  0.0000
    11DUM    Ar 1826   0.275   2.675   0.925  0.0000  0.0000  0.0000
    11DUM    Ar 1827   0.275   2.525   1.075  0.0000  0.0000  0.0000
    11DUM    Ar 1828   0.125   2.675   1.075  0.0000  0.0000  0.0000
    11DUM    Ar 1829   0.425   2.525   0.925  0.0000  0.0000  0.0000
    11DUM    Ar 1830   0.575   2.525   1.075  0.0000  0.0000  0.0000
    11DUM    Ar 1831   0.425   2.675   1.075  0.0000  0.0000  0.0000
    11DUM    Ar 1832   1.475   2.525   1.075  0.0000  0.0000  0.0000
    11DUM    Ar 1833   1.625   2.525   0.925  0.0000  0.0000  0.0000
    11DUM    Ar 1834   1.775   2.675   0.925  0.0000  0.0000  0.0000
    11DUM    Ar 1835   1.775   2.525   1.075  0.0000  0.0000  0.0000
    11DUM    Ar 1836   1.625   2.675   1.075  0.0000  0.0000  0.0000
    11DUM    Ar 1837   1.925   2.525   0.925  0.0000  0.0000  0.0000
    11DUM    Ar 1838   2.075   2.675   0.925  0.0000  0.0000  0.0000
    11DUM    Ar 1839   2.075   2.525   1.075  0.0000  0.0000  0.0000
    11DUM    Ar 1840   1.925   2.675   1.075  0.0000  0.0000  0.0000
    11DUM    Ar 1841   2.225   2.525   0.925  0.0000  0.0000  0.0000
    11DUM    Ar 1842   2.375   2.675   0.925  0.0000  0.0000  0.0000
    11DUM    Ar 1843   2.375   2.525   1.075  0.0000  0.0000  0.0000
    11DUM    Ar 1844   2.225   2.675   1.075  0.0000  0.0000  0.0000
    11DUM    Ar 1845   2.525   2.525   0.925  0.0000  0.0000  0.0000
    11DUM    Ar 1846   3.425   2.525   0.925  0.0000  0.0000  0.0000
    11DUM    Ar 1847   3.575   2.675   0.925  0.0000  0.0000  0.0000
    11DUM    Ar 1848   3.575   2.525   1.075  0.0000  0.0000  0.0000
    11DUM    Ar 1849   3.725   2.525   0.925  0.0000  0.0000  0.0000
    11DUM    Ar 1850   3.875   2.675   0.925  0.0000  0.0000  0.0000
    11DUM    Ar 1851   3.875   2.525   1.075  0.0000  0.0000  0.0000
    11DUM    Ar 1852   3.725   2.675   1.075  0.0000  0.0000  0.0000
    11DUM    Ar 1853   4.025   2.525   0.925  0.0000  0.0000  0.0000
    11DUM    Ar 1854   4.175   2.675   0.925  0.0000  0.0000  0.0000
    11DUM    Ar 1855   4.175   2.525   1.075  0.0000  0.0000  0.0000
    11DUM    Ar 1856   4.025   2.675   1.075  0.0000  0.0000  0.0000
    11DUM    Ar 1857  -0.175   2.825   0.925  0.0000  0.0000  0.0000
    11DUM    Ar 1858  -0.025   2.975   0.925  0.0000  0.0000  0.0000
    11DUM    Ar 1859  -0.025   2.825   1.075  0.0000  0.0000  0.0000
    11DUM    Ar 1860  -0.175   2.975   1.075  0.0000  0.0000  0.0000
    11DUM    Ar 1861   0.125   2.825   0.925  0.0000  0.0000  0.0000
    11DUM    Ar 1862   0.275   2.975   0.925  0.0000  0.0000  0.0000
    11DUM    Ar 1863   0.275   2.825   1.075  0.0000  0.0000  0.0000
    11DUM    Ar 1864   0.125   2.975   1.075  0.0000  0.0000  0.0000
    11DUM    Ar 1865   1.625   2.825   0.925  0.0000  0.0000  0.0000
    11DUM    Ar 1866   1.775   2.975   0.925  0.0000  0.0000  0.0000
    11DUM    Ar 1867   1.775   2.825   1.075  0.0000  0.0000  0.0000
    11DUM    Ar 1868   1.625   2.975   1.075  0.0000  0.0000  0.0000
    11DUM    Ar 1869   1.925   2.825   0.925  0.0000  0.0000  0.0000
    11DUM    Ar 1870   2.075   2.975   0.925  0.0000  0.0000  0.0000
    11DUM    Ar 1871   2.075   2.825   1.075  0.0000  0.0000  0.0000
    11DUM    Ar 1872   1.925   2.975   1.075  0.0000  0.0000  0.0000
    11DUM    Ar 1873   2.225   2.825   0.925  0.0000  0.0000  0.0000
    11DUM    Ar 1874   2.375   2.975   0.925  0.0000  0.0000  0.0000
    11DUM    Ar 1875   2.375   2.825   1.075  0.0000  0.0000  0.0000
    11DUM    Ar 1876   2.225   2.975   1.075  0.0000  0.0000  0.0000
    11DUM    Ar 1877   3.725   2.825   0.925  0.0000  0.0000  0.0000
    11DUM    Ar 1878   3.875   2.975   0.925  0.0000  0.0000  0.0000
    11DUM    Ar 1879   3.875   2.825   1.075  0.0000  0.0000  0.0000
    11DUM    Ar 1880   3.725   2.975   1.075  0.0000  0.0000  0.0000
    11DUM    Ar 1881   4.025   2.825   0.925  0.0000  0.0000  0.0000
    11DUM    Ar 1882   4.175   2.975   0.925  0.0000  0.0000  0.0000
    11DUM    Ar 1883   4.175   2.825   1.075  0.0000  0.0000  0.0000
    11DUM    Ar 1884   4.025   2.975   1.075  0.0000  0.0000  0.0000
    11DUM    Ar 1885  -0.175   3.125   0.925  0.0000  0.0000  0.0000
    11DUM    Ar 1886  -0.025   3.275   0.925  0.0000  0.0000  0.0000
    11DUM    Ar 1887  -0.025   3.125   1.075  0.0000  0.0000  0.0000
    11DUM    Ar 1888  -0.175   3.275   1.075  0.0000  0.0000  0.0000
    11DUM    Ar 1889   0.125   3.125   0.925  0.0000  0.0000  0.0000
    11DUM    Ar 1890   0.275   3.275   0.925  0.0000  0.0000  0.0000
    11DUM    Ar 1891   0.275   3.125   1.075  0.0000  0.0000  0.0000
    11DUM    Ar 1892   0.125   3.275   1.075  0.0000  0.0000  0.0000
    11DUM    Ar 1893   0.425   3.275   1.075  0.0000  0.0000  0.0000
    11DUM    Ar 1894   1.625   3.125   0.925  0.0000  0.0000  0.0000
    11DUM    Ar 1895   1.775   3.275   0.925  0.0000  0.0000  0.0000
    11DUM    Ar 1896   1.775   3.125   1.075  0.0000  0.0000  0.0000
    11DUM    Ar 1897   1.625   3.275   1.075  0.0000  0.0000  0.0000
    11DUM    Ar 1898   1.925   3.125   0.925  0.0000  0.0000  0.0000
    11DUM    Ar 1899   2.075   3.275   0.925  0.0000  0.0000  0.0000
    11DUM    Ar 1900   2.075   3.125   1.075  0.0000  0.0000  0.0000
    11DUM    Ar 1901   1.925   3.275   1.075  0.0000  0.0000  0.0000
    11DUM    Ar 1902   2.225   3.125   0.925  0.0000  0.0000  0.0000
    11DUM    Ar 1903   2.375   3.275   0.925  0.0000  0.0000  0.0000
    11DUM    Ar 1904   2.375   3.125   1.075  0.0000  0.0000  0.0000
    11DUM    Ar 1905   2.225   3.275   1.075  0.0000  0.0000  0.0000
    11DUM    Ar 1906   3.575   3.275   0.925  0.0000  0.0000  0.0000
    11DUM    Ar 1907   3.725   3.125   0.925  0.0000  0.0000  0.0000
    11DUM    Ar 1908   3.875   3.275   0.925  0.0000  0.0000  0.0000
    11DUM    Ar 1909   3.875   3.125   1.075  0.0000  0.0000  0.0000
    11DUM    Ar 1910   3.725   3.275   1.075  0.0000  0.0000  0.0000
    11DUM    Ar 1911   4.025   3.125   0.925  0.0000  0.0000  0.0000
    11DUM    Ar 1912   4.175   3.275   0.925  0.0000  0.0000  0.0000
    11DUM    Ar 1913   4.175   3.125   1.075  0.0000  0.0000  0.0000
    11DUM    Ar 1914   4.025   3.275   1.075  0.0000  0.0000  0.0000
    11DUM    Ar 1915  -0.175   3.425   0.925  0.0000  0.0000  0.0000
    11DUM    Ar 1916  -0.025   3.575   0.925  0.0000  0.0000  0.0000
    11DUM    Ar 1917  -0.025   3.425   1.075  0.0000  0.0000  0.0000
    11DUM    Ar 1918  -0.175   3.575   1.075  0.0000  0.0000  0.0000
    11DUM    Ar 1919   0.125   3.425   0.925  0.0000  0.0000  0.0000
    11DUM    Ar 1920   0.275   3.575   0.925  0.0000  0.0000  0.0000
    11DUM    Ar 1921   0.275   3.425   1.075  0.0000  0.0000  0.0000
    11DUM    Ar 1922   0.125   3.575   1.075  0.0000  0.0000  0.0000
    11DUM    Ar 1923   0.425   3.425   0.925  0.0000  0.0000  0.0000
    11DUM    Ar 1924   0.575   3.575   0.925  0.0000  0.0000  0.0000
    11DUM    Ar 1925   0.425   3.575   1.075  0.0000  0.0000  0.0000
    11DUM    Ar 1926   0.725   3.575   1.075  0.0000  0.0000  0.0000
    11DUM    Ar 1927   1.475   3.575   0.925  0.0000  0.0000  0.0000
    11DUM    Ar 1928   1.475   3.425   1.075  0.0000  0.0000  0.0000
    11DUM    Ar 1929   1.325   3.575   1.075  0.0000  0.0000  0.0000
    11DUM    Ar 1930   1.625   3.425   0.925  0.0000  0.0000  0.0000
    11DUM    Ar 1931   1.775   3.575   0.925  0.0000  0.0000  0.0000
    11DUM    Ar 1932   1.775   3.425   1.075  0.0000  0.0000  0.0000
    11DUM    Ar 1933   1.625   3.575   1.075  0.0000  0.0000  0.0000
    11DUM    Ar 1934   1.925   3.425   0.925  0.0000  0.0000  0.0000
    11DUM    Ar 1935   2.075   3.575   0.925  0.0000  0.0000  0.0000
    11DUM    Ar 1936   2.075   3.425   1.075  0.0000  0.0000  0.0000
    11DUM    Ar 1937   1.925   3.575   1.075  0.0000  0.0000  0.0000
    11DUM    Ar 1938   2.225   3.425   0.925  0.0000  0.0000  0.0000
    11DUM    Ar 1939   2.375   3.575   0.925  0.0000  0.0000  0.0000
    11DUM    Ar 1940   2.375   3.425   1.075  0.0000  0.0000  0.0000
    11DUM    Ar 1941   2.225   3.575   1.075  0.0000  0.0000  0.0000
    11DUM    Ar 1942   2.525   3.425   0.925  0.0000  0.0000  0.0000
    11DUM    Ar 1943   2.675   3.575   0.925  0.0000  0.0000  0.0000
    11DUM    Ar 1944   2.525   3.575   1.075  0.0000  0.0000  0.0000
    11DUM    Ar 1945   3.275   3.575   0.925  0.0000  0.0000  0.0000
    11DUM    Ar 1946   3.575   3.575   0.925  0.0000  0.0000  0.0000
    11DUM    Ar 1947   3.575   3.425   1.075  0.0000  0.0000  0.0000
    11DUM    Ar 1948   3.425   3.575   1.075  0.0000  0.0000  0.0000
    11DUM    Ar 1949   3.725   3.425   0.925  0.0000  0.0000  0.0000
    11DUM    Ar 1950   3.875   3.575   0.925  0.0000  0.0000  0.0000
    11DUM    Ar 1951   3.875   3.425   1.075  0.0000  0.0000  0.0000
    11DUM    Ar 1952   3.725   3.575   1.075  0.0000  0.0000  0.0000
    11DUM    Ar 1953   4.025   3.425   0.925  0.0000  0.0000  0.0000
    11DUM    Ar 1954   4.175   3.575   0.925  0.0000  0.0000  0.0000
    11DUM    Ar 1955   4.175   3.425   1.075  0.0000  0.0000  0.0000
    11DUM    Ar 1956   4.025   3.575   1.075  0.0000  0.0000  0.0000
    11DUM    Ar 1957  -0.175   3.725   0.925  0.0000  0.0000  0.0000
    11DUM    Ar 1958  -0.025   3.875   0.925  0.0000  0.0000  0.0000
    11DUM    Ar 1959  -0.025   3.725   1.075  0.0000  0.0000  0.0000
    11DUM    Ar 1960  -0.175   3.875   1.075  0.0000  0.0000  0.0000
    11DUM    Ar 1961   0.125   3.725   0.925  0.0000  0.0000  0.0000
    11DUM    Ar 1962   0.275   3.875   0.925  0.0000  0.0000  0.0000
    11DUM    Ar 1963   0.275   3.725   1.075  0.0000  0.0000  0.0000
    11DUM    Ar 1964   0.125   3.875   1.075  0.0000  0.0000  0.0000
    11DUM    Ar 1965   0.425   3.725   0.925  0.0000  0.0000  0.0000
    11DUM    Ar 1966   0.575   3.875   0.925  0.0000  0.0000  0.0000
    11DUM    Ar 1967   0.575   3.725   1.075  0.0000  0.0000  0.0000
    11DUM    Ar 1968   0.425   3.875   1.075  0.0000  0.0000  0.0000
    11DUM    Ar 1969   0.725   3.725   0.925  0.0000  0.0000  0.0000
    11DUM    Ar 1970   0.875   3.875   0.925  0.0000  0.0000  0.0000
    11DUM    Ar 1971   0.875   3.725   1.075  0.0000  0.0000  0.0000
    11DUM    Ar 1972   0.725   3.875   1.075  0.0000  0.0000  0.0000
    11DUM    Ar 1973   1.025   3.725   0.925  0.0000  0.0000  0.0000
    11DUM    Ar 1974   1.175   3.875   0.925  0.0000  0.0000  0.0000
    11DUM    Ar 1975   1.175   3.725   1.075  0.0000  0.0000  0.0000
    11DUM    Ar 1976   1.025   3.875   1.075  0.0000  0.0000  0.0000
    11DUM    Ar 1977   1.325   3.725   0.925  0.0000  0.0000  0.0000
    11DUM    Ar 1978   1.475   3.875   0.925  0.0000  0.0000  0.0000
    11DUM    Ar 1979   1.475   3.725   1.075  0.0000  0.0000  0.0000
    11DUM    Ar 1980   1.325   3.875   1.075  0.0000  0.0000  0.0000
    11DUM    Ar 1981   1.625   3.725   0.925  0.0000  0.0000  0.0000
    11DUM    Ar 1982   1.775   3.875   0.925  0.0000  0.0000  0.0000
    11DUM    Ar 1983   1.775   3.725   1.075  0.0000  0.0000  0.0000
    11DUM    Ar 1984   1.625   3.875   1.075  0.0000  0.0000  0.0000
    11DUM    Ar 1985   1.925   3.725   0.925  0.0000  0.0000  0.0000
    11DUM    Ar 1986   2.075   3.875   0.925  0.0000  0.0000  0.0000
    11DUM    Ar 1987   2.075   3.725   1.075  0.0000  0.0000  0.0000
    11DUM    Ar 1988   1.925   3.875   1.075  0.0000  0.0000  0.0000
    11DUM    Ar 1989   2.225   3.725   0.925  0.0000  0.0000  0.0000
    11DUM    Ar 1990   2.375   3.875   0.925  0.0000  0.0000  0.0000
    11DUM    Ar 1991   2.375   3.725   1.075  0.0000  0.0000  0.0000
    11DUM    Ar 1992   2.225   3.875   1.075  0.0000  0.0000  0.0000
    11DUM    Ar 1993   2.525   3.725   0.925  0.0000  0.0000  0.0000
    11DUM    Ar 1994   2.675   3.875   0.925  0.0000  0.0000  0.0000
    11DUM    Ar 1995   2.675   3.725   1.075  0.0000  0.0000  0.0000
    11DUM    Ar 1996   2.525   3.875   1.075  0.0000  0.0000  0.0000
    11DUM    Ar 1997   2.825   3.725   0.925  0.0000  0.0000  0.0000
    11DUM    Ar 1998   2.975   3.875   0.925  0.0000  0.0000  0.0000
    11DUM    Ar 1999   2.975   3.725   1.075  0.0000  0.0000  0.0000
    11DUM    Ar 2000   2.825   3.875   1.075  0.0000  0.0000  0.0000
    11DUM    Ar 2001   3.125   3.725   0.925  0.0000  0.0000  0.0000
    11DUM    Ar 2002   3.275   3.875   0.925  0.0000  0.0000  0.0000
    11DUM    Ar 2003   3.275   3.725   1.075  0.0000  0.0000  0.0000
    11DUM    Ar 2004   3.125   3.875   1.075  0.0000  0.0000  0.0000
    11DUM    Ar 2005   3.425   3.725   0.925  0.0000  0.0000  0.0000
    11DUM    Ar 2006   3.575   3.875   0.925  0.0000  0.0000  0.0000
    11DUM    Ar 2007   3.575   3.725   1.075  0.0000  0.0000  0.0000
    11DUM    Ar 2008   3.425   3.875   1.075  0.0000  0.0000  0.0000
    11DUM    Ar 2009   3.725   3.725   0.925  0.0000  0.0000  0.0000
    11DUM    Ar 2010   3.875   3.875   0.925  0.0000  0.0000  0.0000
    11DUM    Ar 2011   3.875   3.725   1.075  0.0000  0.0000  0.0000
    11DUM    Ar 2012   3.725   3.875   1.075  0.0000  0.0000  0.0000
    11DUM    Ar 2013   4.025   3.725   0.925  0.0000  0.0000  0.0000
    11DUM    Ar 2014   4.175   3.875   0.925  0.0000  0.0000  0.0000
    11DUM    Ar 2015   4.175   3.725   1.075  0.0000  0.0000  0.0000
    11DUM    Ar 2016   4.025   3.875   1.075  0.0000  0.0000  0.0000
    11DUM    Ar 2017  -0.175   4.025   0.925  0.0000  0.0000  0.0000
    11DUM    Ar 2018  -0.025   4.175   0.925  0.0000  0.0000  0.0000
    11DUM    Ar 2019  -0.025   4.025   1.075  0.0000  0.0000  0.0000
    11DUM    Ar 2020  -0.175   4.175   1.075  0.0000  0.0000  0.0000
    11DUM    Ar 2021   0.125   4.025   0.925  0.0000  0.0000  0.0000
    11DUM    Ar 2022   0.275   4.175   0.925  0.0000  0.0000  0.0000
    11DUM    Ar 2023   0.275   4.025   1.075  0.0000  0.0000  0.0000
    11DUM    Ar 2024   0.125   4.175   1.075  0.0000  0.0000  0.0000
    11DUM    Ar 2025   0.425   4.025   0.925  0.0000  0.0000  0.0000
    11DUM    Ar 2026   0.575   4.175   0.925  0.0000  0.0000  0.0000
    11DUM    Ar 2027   0.575   4.025   1.075  0.0000  0.0000  0.0000
    11DUM    Ar 2028   0.425   4.175   1.075  0.0000  0.0000  0.0000
    11DUM    Ar 2029   0.725   4.025   0.925  0.0000  0.0000  0.0000
    11DUM    Ar 2030   0.875   4.175   0.925  0.0000  0.0000  0.0000
    11DUM    Ar 2031   0.875   4.025   1.075  0.0000  0.0000  0.0000
    11DUM    Ar 2032   0.725   4.175   1.075  0.0000  0.0000  0.0000
    11DUM    Ar 2033   1.025   4.025   0.925  0.0000  0.0000  0.0000
    11DUM    Ar 2034   1.175   4.175   0.925  0.0000  0.0000  0.0000
    11DUM    Ar 2035   1.175   4.025   1.075  0.0000  0.0000  0.0000
    11DUM    Ar 2036   1.025   4.175   1.075  0.0000  0.0000  0.0000
    11DUM    Ar 2037   1.325   4.025   0.925  0.0000  0.0000  0.0000
    11DUM    Ar 2038   1.475   4.175   0.925  0.0000  0.0000  0.0000
    11DUM    Ar 2039   1.475   4.025   1.075  0.0000  0.0000  0.0000
    11DUM    Ar 2040   1.325   4.175   1.075  0.0000  0.0000  0.0000
    11DUM    Ar 2041   1.625   4.025   0.925  0.0000  0.0000  0.0000
    11DUM    Ar 2042   1.775   4.175   0.925  0.0000  0.0000  0.0000
    11DUM    Ar 2043   1.775   4.025   1.075  0.0000  0.0000  0.0000
    11DUM    Ar 2044   1.625   4.175   1.075  0.0000  0.0000  0.0000
    11DUM    Ar 2045   1.925   4.025   0.925  0.0000  0.0000  0.0000
    11DUM    Ar 2046   2.075   4.175   0.925  0.0000  0.0000  0.0000
    11DUM    Ar 2047   2.075   4.025   1.075  0.0000  0.0000  0.0000
    11DUM    Ar 2048   1.925   4.175   1.075  0.0000  0.0000  0.0000
    11DUM    Ar 2049   2.225   4.025   0.925  0.0000  0.0000  0.0000
    11DUM    Ar 2050   2.375   4.175   0.925  0.0000  0.0000  0.0000
    11DUM    Ar 2051   2.375   4.025   1.075  0.0000  0.0000  0.0000
    11DUM    Ar 2052   2.225   4.175   1.075  0.0000  0.0000  0.0000
    11DUM    Ar 2053   2.525   4.025   0.925  0.0000  0.0000  0.0000
    11DUM    Ar 2054   2.675   4.175   0.925  0.0000  0.0000  0.0000
    11DUM    Ar 2055   2.675   4.025   1.075  0.0000  0.0000  0.0000
    11DUM    Ar 2056   2.525   4.175   1.075  0.0000  0.0000  0.0000
    11DUM    Ar 2057   2.825   4.025   0.925  0.0000  0.0000  0.0000
    11DUM    Ar 2058   2.975   4.175   0.925  0.0000  0.0000  0.0000
    11DUM    Ar 2059   2.975   4.025   1.075  0.0000  0.0000  0.0000
    11DUM    Ar 2060   2.825   4.175   1.075  0.0000  0.0000  0.0000
    11DUM    Ar 2061   3.125   4.025   0.925  0.0000  0.0000  0.0000
    11DUM    Ar 2062   3.275   4.175   0.925  0.0000  0.0000  0.0000
    11DUM    Ar 2063   3.275   4.025   1.075  0.0000  0.0000  0.0000
    11DUM    Ar 2064   3.125   4.175   1.075  0.0000  0.0000  0.0000
    11DUM    Ar 2065   3.425   4.025   0.925  0.0000  0.0000  0.0000
    11DUM    Ar 2066   3.575   4.175   0.925  0.0000  0.0000  0.0000
    11DUM    Ar 2067   3.575   4.025   1.075  0.0000  0.0000  0.0000
    11DUM    Ar 2068   3.425   4.175   1.075  0.0000  0.0000  0.0000
    11DUM    Ar 2069   3.725   4.025   0.925  0.0000  0.0000  0.0000
    11DUM    Ar 2070   3.875   4.175   0.925  0.0000  0.0000  0.0000
    11DUM    Ar 2071   3.875   4.025   1.075  0.0000  0.0000  0.0000
    11DUM    Ar 2072   3.725   4.175   1.075  0.0000  0.0000  0.0000
    11DUM    Ar 2073   4.025   4.025   0.925  0.0000  0.0000  0.0000
    11DUM    Ar 2074   4.175   4.175   0.925  0.0000  0.0000  0.0000
    11DUM    Ar 2075   4.175   4.025   1.075  0.0000  0.0000  0.0000
    11DUM    Ar 2076   4.025   4.175   1.075  0.0000  0.0000  0.0000
    11DUM    Ar 2077  -0.175  -0.175   1.225  0.0000  0.0000  0.0000
    11DUM    Ar 2078  -0.025  -0.025   1.225  0.0000  0.0000  0.0000
    11DUM    Ar 2079  -0.025  -0.175   1.375  0.0000  0.0000  0.0000
    11DUM    Ar 2080  -0.175  -0.025   1.375  0.0000  0.0000  0.0000
    11DUM    Ar 2081   0.125  -0.175   1.225  0.0000  0.0000  0.0000
    11DUM    Ar 2082   0.275  -0.025   1.225  0.0000  0.0000  0.0000
    11DUM    Ar 2083   0.275  -0.175   1.375  0.0000  0.0000  0.0000
    11DUM    Ar 2084   0.125  -0.025   1.375  0.0000  0.0000  0.0000
    11DUM    Ar 2085   0.425  -0.175   1.225  0.0000  0.0000  0.0000
    11DUM    Ar 2086   0.575  -0.025   1.225  0.0000  0.0000  0.0000
    11DUM    Ar 2087   0.575  -0.175   1.375  0.0000  0.0000  0.0000
    11DUM    Ar 2088   0.425  -0.025   1.375  0.0000  0.0000  0.0000
    11DUM    Ar 2089   0.725  -0.175   1.225  0.0000  0.0000  0.0000
    11DUM    Ar 2090   0.875  -0.025   1.225  0.0000  0.0000  0.0000
    11DUM    Ar 2091   0.875  -0.175   1.375  0.0000  0.0000  0.0000
    11DUM    Ar 2092   0.725  -0.025   1.375  0.0000  0.0000  0.0000
    11DUM    Ar 2093   1.025  -0.175   1.225  0.0000  0.0000  0.0000
    11DUM    Ar 2094   1.175  -0.025   1.225  0.0000  0.0000  0.0000
    11DUM    Ar 2095   1.175  -0.175   1.375  0.0000  0.0000  0.0000
    11DUM    Ar 2096   1.025  -0.025   1.375  0.0000  0.0000  0.0000
    11DUM    Ar 2097   1.325  -0.175   1.225  0.0000  0.0000  0.0000
    11DUM    Ar 2098   1.475  -0.025   1.225  0.0000  0.0000  0.0000
    11DUM    Ar 2099   1.475  -0.175   1.375  0.0000  0.0000  0.0000
    11DUM    Ar 2100   1.325  -0.025   1.375  0.0000  0.0000  0.0000
    11DUM    Ar 2101   1.625  -0.175   1.225  0.0000  0.0000  0.0000
    11DUM    Ar 2102   1.775  -0.025   1.225  0.0000  0.0000  0.0000
    11DUM    Ar 2103   1.775  -0.175   1.375  0.0000  0.0000  0.0000
    11DUM    Ar 2104   1.625  -0.025   1.375  0.0000  0.0000  0.0000
    11DUM    Ar 2105   1.925  -0.175   1.225  0.0000  0.0000  0.0000
    11DUM    Ar 2106   2.075  -0.025   1.225  0.0000  0.0000  0.0000
    11DUM    Ar 2107   2.075  -0.175   1.375  0.0000  0.0000  0.0000
    11DUM    Ar 2108   1.925  -0.025   1.375  0.0000  0.0000  0.0000
    11DUM    Ar 2109   2.225  -0.175   1.225  0.0000  0.0000  0.0000
    11DUM    Ar 2110   2.375  -0.025   1.225  0.0000  0.0000  0.0000
    11DUM    Ar 2111   2.375  -0.175   1.375  0.0000  0.0000  0.0000
    11DUM    Ar 2112   2.225  -0.025   1.375  0.0000  0.0000  0.0000
    11DUM    Ar 2113   2.525  -0.175   1.225  0.0000  0.0000  0.0000
    11DUM    Ar 2114   2.675  -0.025   1.225  0.0000  0.0000  0.0000
    11DUM    Ar 2115   2.675  -0.175   1.375  0.0000  0.0000  0.0000
    11DUM    Ar 2116   2.525  -0.025   1.375  0.0000  0.0000  0.0000
    11DUM    Ar 2117   2.825  -0.175   1.225  0.0000  0.0000  0.0000
    11DUM    Ar 2118   2.975  -0.025   1.225  0.0000  0.0000  0.0000
    11DUM    Ar 2119   2.975  -0.175   1.375  0.0000  0.0000  0.0000
    11DUM    Ar 2120   2.825  -0.025   1.375  0.0000  0.0000  0.0000
    11DUM    Ar 2121   3.125  -0.175   1.225  0.0000  0.0000  0.0000
    11DUM    Ar 2122   3.275  -0.025   1.225  0.0000  0.0000  0.0000
    11DUM    Ar 2123   3.275  -0.175   1.375  0.0000  0.0000  0.0000
    11DUM    Ar 2124   3.125  -0.025   1.375  0.0000  0.0000  0.0000
    11DUM    Ar 2125   3.425  -0.175   1.225  0.0000  0.0000  0.0000
    11DUM    Ar 2126   3.575  -0.025   1.225  0.0000  0.0000  0.0000
    11DUM    Ar 2127   3.575  -0.175   1.375  0.0000  0.0000  0.0000
    11DUM    Ar 2128   3.425  -0.025   1.375  0.0000  0.0000  0.0000
    11DUM    Ar 2129   3.725  -0.175   1.225  0.0000  0.0000  0.0000
    11DUM    Ar 2130   3.875  -0.025   1.225  0.0000  0.0000  0.0000
    11DUM    Ar 2131   3.875  -0.175   1.375  0.0000  0.0000  0.0000
    11DUM    Ar 2132   3.725  -0.025   1.375  0.0000  0.0000  0.0000
    11DUM    Ar 2133   4.025  -0.175   1.225  0.0000  0.0000  0.0000
    11DUM    Ar 2134   4.175  -0.025   1.225  0.0000  0.0000  0.0000
    11DUM    Ar 2135   4.175  -0.175   1.375  0.0000  0.0000  0.0000
    11DUM    Ar 2136   4.025  -0.025   1.375  0.0000  0.0000  0.0000
    11DUM    Ar 2137  -0.175   0.125   1.225  0.0000  0.0000  0.0000
    11DUM    Ar 2138  -0.025   0.275   1.225  0.0000  0.0000  0.0000
    11DUM    Ar 2139  -0.025   0.125   1.375  0.0000  0.0000  0.0000
    11DUM    Ar 2140  -0.175   0.275   1.375  0.0000  0.0000  0.0000
    11DUM    Ar 2141   0.125   0.125   1.225  0.0000  0.0000  0.0000
    11DUM    Ar 2142   0.275   0.275   1.225  0.0000  0.0000  0.0000
    11DUM    Ar 2143   0.275   0.125   1.375  0.0000  0.0000  0.0000
    11DUM    Ar 2144   0.125   0.275   1.375  0.0000  0.0000  0.0000
    11DUM    Ar 2145   0.425   0.125   1.225  0.0000  0.0000  0.0000
    11DUM    Ar 2146   0.575   0.275   1.225  0.0000  0.0000  0.0000
    11DUM    Ar 2147   0.575   0.125   1.375  0.0000  0.0000  0.0000
    11DUM    Ar 2148   0.425   0.275   1.375  0.0000  0.0000  0.0000
    11DUM    Ar 2149   0.725   0.125   1.225  0.0000  0.0000  0.0000
    11DUM    Ar 2150   0.875   0.275   1.225  0.0000  0.0000  0.0000
    11DUM    Ar 2151   0.875   0.125   1.375  0.0000  0.0000  0.0000
    11DUM    Ar 2152   0.725   0.275   1.375  0.0000  0.0000  0.0000
    11DUM    Ar 2153   1.025   0.125   1.225  0.0000  0.0000  0.0000
    11DUM    Ar 2154   1.175   0.275   1.225  0.0000  0.0000  0.0000
    11DUM    Ar 2155   1.175   0.125   1.375  0.0000  0.0000  0.0000
    11DUM    Ar 2156   1.025   0.275   1.375  0.0000  0.0000  0.0000
    11DUM    Ar 2157   1.325   0.125   1.225  0.0000  0.0000  0.0000
    11DUM    Ar 2158   1.475   0.275   1.225  0.0000  0.0000  0.0000
    11DUM    Ar 2159   1.475   0.125   1.375  0.0000  0.0000  0.0000
    11DUM    Ar 2160   1.325   0.275   1.375  0.0000  0.0000  0.0000
    11DUM    Ar 2161   1.625   0.125   1.225  0.0000  0.0000  0.0000
    11DUM    Ar 2162   1.775   0.275   1.225  0.0000  0.0000  0.0000
    11DUM    Ar 2163   1.775   0.125   1.375  0.0000  0.0000  0.0000
    11DUM    Ar 2164   1.625   0.275   1.375  0.0000  0.0000  0.0000
    11DUM    Ar 2165   1.925   0.125   1.225  0.0000  0.0000  0.0000
    11DUM    Ar 2166   2.075   0.275   1.225  0.0000  0.0000  0.0000
    11DUM    Ar 2167   2.075   0.125   1.375  0.0000  0.0000  0.0000
    11DUM    Ar 2168   1.925   0.275   1.375  0.0000  0.0000  0.0000
    11DUM    Ar 2169   2.225   0.125   1.225  0.0000  0.0000  0.0000
    11DUM    Ar 2170   2.375   0.275   1.225  0.0000  0.0000  0.0000
    11DUM    Ar 2171   2.375   0.125   1.375  0.0000  0.0000  0.0000
    11DUM    Ar 2172   2.225   0.275   1.375  0.0000  0.0000  0.0000
    11DUM    Ar 2173   2.525   0.125   1.225  0.0000  0.0000  0.0000
    11DUM    Ar 2174   2.675   0.275   1.225  0.0000  0.0000  0.0000
    11DUM    Ar 2175   2.675   0.125   1.375  0.0000  0.0000  0.0000
    11DUM    Ar 2176   2.525   0.275   1.375  0.0000  0.0000  0.0000
    11DUM    Ar 2177   2.825   0.125   1.225  0.0000  0.0000  0.0000
    11DUM    Ar 2178   2.975   0.275   1.225  0.0000  0.0000  0.0000
    11DUM    Ar 2179   2.975   0.125   1.375  0.0000  0.0000  0.0000
    11DUM    Ar 2180   2.825   0.275   1.375  0.0000  0.0000  0.0000
    11DUM    Ar 2181   3.125   0.125   1.225  0.0000  0.0000  0.0000
    11DUM    Ar 2182   3.275   0.275   1.225  0.0000  0.0000  0.0000
    11DUM    Ar 2183   3.275   0.125   1.375  0.0000  0.0000  0.0000
    11DUM    Ar 2184   3.125   0.275   1.375  0.0000  0.0000  0.0000
    11DUM    Ar 2185   3.425   0.125   1.225  0.0000  0.0000  0.0000
    11DUM    Ar 2186   3.575   0.275   1.225  0.0000  0.0000  0.0000
    11DUM    Ar 2187   3.575   0.125   1.375  0.0000  0.0000  0.0000
    11DUM    Ar 2188   3.425   0.275   1.375  0.0000  0.0000  0.0000
    11DUM    Ar 2189   3.725   0.125   1.225  0.0000  0.0000  0.0000
    11DUM    Ar 2190   3.875   0.275   1.225  0.0000  0.0000  0.0000
    11DUM    Ar 2191   3.875   0.125   1.375  0.0000  0.0000  0.0000
    11DUM    Ar 2192   3.725   0.275   1.375  0.0000  0.0000  0.0000
    11DUM    Ar 2193   4.025   0.125   1.225  0.0000  0.0000  0.0000
    11DUM    Ar 2194   4.175   0.275   1.225  0.0000  0.0000  0.0000
    11DUM    Ar 2195   4.175   0.125   1.375  0.0000  0.0000  0.0000
    11DUM    Ar 2196   4.025   0.275   1.375  0.0000  0.0000  0.0000
    11DUM    Ar 2197  -0.175   0.425   1.225  0.0000  0.0000  0.0000
    11DUM    Ar 2198  -0.025   0.575   1.225  0.0000  0.0000  0.0000
    11DUM    Ar 2199  -0.025   0.425   1.375  0.0000  0.0000  0.0000
    11DUM    Ar 2200  -0.175   0.575   1.375  0.0000  0.0000  0.0000
    11DUM    Ar 2201   0.125   0.425   1.225  0.0000  0.0000  0.0000
    11DUM    Ar 2202   0.275   0.575   1.225  0.0000  0.0000  0.0000
    11DUM    Ar 2203   0.275   0.425   1.375  0.0000  0.0000  0.0000
    11DUM    Ar 2204   0.125   0.575   1.375  0.0000  0.0000  0.0000
    11DUM    Ar 2205   0.425   0.425   1.225  0.0000  0.0000  0.0000
    11DUM    Ar 2206   0.575   0.425   1.375  0.0000  0.0000  0.0000
    11DUM    Ar 2207   0.425   0.575   1.375  0.0000  0.0000  0.0000
    11DUM    Ar 2208   0.725   0.425   1.225  0.0000  0.0000  0.0000
    11DUM    Ar 2209   1.325   0.425   1.225  0.0000  0.0000  0.0000
    11DUM    Ar 2210   1.475   0.575   1.225  0.0000  0.0000  0.0000
    11DUM    Ar 2211   1.475   0.425   1.375  0.0000  0.0000  0.0000
    11DUM    Ar 2212   1.625   0.425   1.225  0.0000  0.0000  0.0000
    11DUM    Ar 2213   1.775   0.575   1.225  0.0000  0.0000  0.0000
    11DUM    Ar 2214   1.775   0.425   1.375  0.0000  0.0000  0.0000
    11DUM    Ar 2215   1.625   0.575   1.375  0.0000  0.0000  0.0000
    11DUM    Ar 2216   1.925   0.425   1.225  0.0000  0.0000  0.0000
    11DUM    Ar 2217   2.075   0.575   1.225  0.0000  0.0000  0.0000
    11DUM    Ar 2218   2.075   0.425   1.375  0.0000  0.0000  0.0000
    11DUM    Ar 2219   1.925   0.575   1.375  0.0000  0.0000  0.0000
    11DUM    Ar 2220   2.225   0.425   1.225  0.0000  0.0000  0.0000
    11DUM    Ar 2221   2.375   0.575   1.225  0.0000  0.0000  0.0000
    11DUM    Ar 2222   2.375   0.425   1.375  0.0000  0.0000  0.0000
    11DUM    Ar 2223   2.225   0.575   1.375  0.0000  0.0000  0.0000
    11DUM    Ar 2224   2.525   0.425   1.225  0.0000  0.0000  0.0000
    11DUM    Ar 2225   2.675   0.425   1.375  0.0000  0.0000  0.0000
    11DUM    Ar 2226   2.525   0.575   1.375  0.0000  0.0000  0.0000
    11DUM    Ar 2227   3.275   0.425   1.375  0.0000  0.0000  0.0000
    11DUM    Ar 2228   3.425   0.425   1.225  0.0000  0.0000  0.0000
    11DUM    Ar 2229   3.575   0.575   1.225  0.0000  0.0000  0.0000
    11DUM    Ar 2230   3.575   0.425   1.375  0.0000  0.0000  0.0000
    11DUM    Ar 2231   3.725   0.425   1.225  0.0000  0.0000  0.0000
    11DUM    Ar 2232   3.875   0.575   1.225  0.0000  0.0000  0.0000
    11DUM    Ar 2233   3.875   0.425   1.375  0.0000  0.0000  0.0000
    11DUM    Ar 2234   3.725   0.575   1.375  0.0000  0.0000  0.0000
    11DUM    Ar 2235   4.025   0.425   1.225  0.0000  0.0000  0.0000
    11DUM    Ar 2236   4.175   0.575   1.225  0.0000  0.0000  0.0000
    11DUM    Ar 2237   4.175   0.425   1.375  0.0000  0.0000  0.0000
    11DUM    Ar 2238   4.025   0.575   1.375  0.0000  0.0000  0.0000
    11DUM    Ar 2239  -0.175   0.725   1.225  0.0000  0.0000  0.0000
    11DUM    Ar 2240  -0.025   0.875   1.225  0.0000  0.0000  0.0000
    11DUM    Ar 2241  -0.025   0.725   1.375  0.0000  0.0000  0.0000
    11DUM    Ar 2242  -0.175   0.875   1.375  0.0000  0.0000  0.0000
    11DUM    Ar 2243   0.125   0.725   1.225  0.0000  0.0000  0.0000
    11DUM    Ar 2244   0.275   0.875   1.225  0.0000  0.0000  0.0000
    11DUM    Ar 2245   0.275   0.725   1.375  0.0000  0.0000  0.0000
    11DUM    Ar 2246   0.125   0.875   1.375  0.0000  0.0000  0.0000
    11DUM    Ar 2247   0.425   0.725   1.225  0.0000  0.0000  0.0000
    11DUM    Ar 2248   1.625   0.725   1.225  0.0000  0.0000  0.0000
    11DUM    Ar 2249   1.775   0.875   1.225  0.0000  0.0000  0.0000
    11DUM    Ar 2250   1.775   0.725   1.375  0.0000  0.0000  0.0000
    11DUM    Ar 2251   1.625   0.875   1.375  0.0000  0.0000  0.0000
    11DUM    Ar 2252   1.925   0.725   1.225  0.0000  0.0000  0.0000
    11DUM    Ar 2253   2.075   0.875   1.225  0.0000  0.0000  0.0000
    11DUM    Ar 2254   2.075   0.725   1.375  0.0000  0.0000  0.0000
    11DUM    Ar 2255   1.925   0.875   1.375  0.0000  0.0000  0.0000
    11DUM    Ar 2256   2.225   0.725   1.225  0.0000  0.0000  0.0000
    11DUM    Ar 2257   2.375   0.875   1.225  0.0000  0.0000  0.0000
    11DUM    Ar 2258   2.375   0.725   1.375  0.0000  0.0000  0.0000
    11DUM    Ar 2259   2.225   0.875   1.375  0.0000  0.0000  0.0000
    11DUM    Ar 2260   3.575   0.725   1.375  0.0000  0.0000  0.0000
    11DUM    Ar 2261   3.725   0.725   1.225  0.0000  0.0000  0.0000
    11DUM    Ar 2262   3.875   0.875   1.225  0.0000  0.0000  0.0000
    11DUM    Ar 2263   3.875   0.725   1.375  0.0000  0.0000  0.0000
    11DUM    Ar 2264   3.725   0.875   1.375  0.0000  0.0000  0.0000
    11DUM    Ar 2265   4.025   0.725   1.225  0.0000  0.0000  0.0000
    11DUM    Ar 2266   4.175   0.875   1.225  0.0000  0.0000  0.0000
    11DUM    Ar 2267   4.175   0.725   1.375  0.0000  0.0000  0.0000
    11DUM    Ar 2268   4.025   0.875   1.375  0.0000  0.0000  0.0000
    11DUM    Ar 2269  -0.175   1.025   1.225  0.0000  0.0000  0.0000
    11DUM    Ar 2270  -0.025   1.175   1.225  0.0000  0.0000  0.0000
    11DUM    Ar 2271  -0.025   1.025   1.375  0.0000  0.0000  0.0000
    11DUM    Ar 2272  -0.175   1.175   1.375  0.0000  0.0000  0.0000
    11DUM    Ar 2273   0.125   1.025   1.225  0.0000  0.0000  0.0000
    11DUM    Ar 2274   0.275   1.175   1.225  0.0000  0.0000  0.0000
    11DUM    Ar 2275   0.275   1.025   1.375  0.0000  0.0000  0.0000
    11DUM    Ar 2276   0.125   1.175   1.375  0.0000  0.0000  0.0000
    11DUM    Ar 2277   1.625   1.025   1.225  0.0000  0.0000  0.0000
    11DUM    Ar 2278   1.775   1.175   1.225  0.0000  0.0000  0.0000
    11DUM    Ar 2279   1.775   1.025   1.375  0.0000  0.0000  0.0000
    11DUM    Ar 2280   1.625   1.175   1.375  0.0000  0.0000  0.0000
    11DUM    Ar 2281   1.925   1.025   1.225  0.0000  0.0000  0.0000
    11DUM    Ar 2282   2.075   1.175   1.225  0.0000  0.0000  0.0000
    11DUM    Ar 2283   2.075   1.025   1.375  0.0000  0.0000  0.0000
    11DUM    Ar 2284   1.925   1.175   1.375  0.0000  0.0000  0.0000
    11DUM    Ar 2285   2.225   1.025   1.225  0.0000  0.0000  0.0000
    11DUM    Ar 2286   2.375   1.175   1.225  0.0000  0.0000  0.0000
    11DUM    Ar 2287   2.375   1.025   1.375  0.0000  0.0000  0.0000
    11DUM    Ar 2288   2.225   1.175   1.375  0.0000  0.0000  0.0000
    11DUM    Ar 2289   3.725   1.025   1.225  0.0000  0.0000  0.0000
    11DUM    Ar 2290   3.875   1.175   1.225  0.0000  0.0000  0.0000
    11DUM    Ar 2291   3.875   1.025   1.375  0.0000  0.0000  0.0000
    11DUM    Ar 2292   3.725   1.175   1.375  0.0000  0.0000  0.0000
    11DUM    Ar 2293   4.025   1.025   1.225  0.0000  0.0000  0.0000
    11DUM    Ar 2294   4.175   1.175   1.225  0.0000  0.0000  0.0000
    11DUM    Ar 2295   4.175   1.025   1.375  0.0000  0.0000  0.0000
    11DUM    Ar 2296   4.025   1.175   1.375  0.0000  0.0000  0.0000
    11DUM    Ar 2297  -0.175   1.325   1.225  0.0000  0.0000  0.0000
    11DUM    Ar 2298  -0.025   1.475   1.225  0.0000  0.0000  0.0000
    11DUM    Ar 2299  -0.025   1.325   1.375  0.0000  0.0000  0.0000
    11DUM    Ar 2300  -0.175   1.475   1.375  0.0000  0.0000  0.0000
    11DUM    Ar 2301   0.125   1.325   1.225  0.0000  0.0000  0.0000
    11DUM    Ar 2302   0.275   1.475   1.225  0.0000  0.0000  0.0000
    11DUM    Ar 2303   0.275   1.325   1.375  0.0000  0.0000  0.0000
    11DUM    Ar 2304   0.125   1.475   1.375  0.0000  0.0000  0.0000
    11DUM    Ar 2305   0.425   1.325   1.225  0.0000  0.0000  0.0000
    11DUM    Ar 2306   0.575   1.475   1.225  0.0000  0.0000  0.0000
    11DUM    Ar 2307   0.425   1.475   1.375  0.0000  0.0000  0.0000
    11DUM    Ar 2308   1.475   1.475   1.225  0.0000  0.0000  0.0000
    11DUM    Ar 2309   1.625   1.325   1.225  0.0000  0.0000  0.0000
    11DUM    Ar 2310   1.775   1.475   1.225  0.0000  0.0000  0.0000
    11DUM    Ar 2311   1.775   1.325   1.375  0.0000  0.0000  0.0000
    11DUM    Ar 2312   1.625   1.475   1.375  0.0000  0.0000  0.0000
    11DUM    Ar 2313   1.925   1.325   1.225  0.0000  0.0000  0.0000
    11DUM    Ar 2314   2.075   1.475   1.225  0.0000  0.0000  0.0000
    11DUM    Ar 2315   2.075   1.325   1.375  0.0000  0.0000  0.0000
    11DUM    Ar 2316   1.925   1.475   1.375  0.0000  0.0000  0.0000
    11DUM    Ar 2317   2.225   1.325   1.225  0.0000  0.0000  0.0000
    11DUM    Ar 2318   2.375   1.475   1.225  0.0000  0.0000  0.0000
    11DUM    Ar 2319   2.375   1.325   1.375  0.0000  0.0000  0.0000
    11DUM    Ar 2320   2.225   1.475   1.375  0.0000  0.0000  0.0000
    11DUM    Ar 2321   2.525   1.475   1.375  0.0000  0.0000  0.0000
    11DUM    Ar 2322   3.575   1.475   1.225  0.0000  0.0000  0.0000
    11DUM    Ar 2323   3.575   1.325   1.375  0.0000  0.0000  0.0000
    11DUM    Ar 2324   3.425   1.475   1.375  0.0000  0.0000  0.0000
    11DUM    Ar 2325   3.725   1.325   1.225  0.0000  0.0000  0.0000
    11DUM    Ar 2326   3.875   1.475   1.225  0.0000  0.0000  0.0000
    11DUM    Ar 2327   3.875   1.325   1.375  0.0000  0.0000  0.0000
    11DUM    Ar 2328   3.725   1.475   1.375  0.0000  0.0000  0.0000
    11DUM    Ar 2329   4.025   1.325   1.225  0.0000  0.0000  0.0000
    11DUM    Ar 2330   4.175   1.475   1.225  0.0000  0.0000  0.0000
    11DUM    Ar 2331   4.175   1.325   1.375  0.0000  0.0000  0.0000
    11DUM    Ar 2332   4.025   1.475   1.375  0.0000  0.0000  0.0000
    11DUM    Ar 2333  -0.175   1.625   1.225  0.0000  0.0000  0.0000
    11DUM    Ar 2334  -0.025   1.775   1.225  0.0000  0.0000  0.0000
    11DUM    Ar 2335  -0.025   1.625   1.375  0.0000  0.0000  0.0000
    11DUM    Ar 2336  -0.175   1.775   1.375  0.0000  0.0000  0.0000
    11DUM    Ar 2337   0.125   1.625   1.225  0.0000  0.0000  0.0000
    11DUM    Ar 2338   0.275   1.775   1.225  0.0000  0.0000  0.0000
    11DUM    Ar 2339   0.275   1.625   1.375  0.0000  0.0000  0.0000
    11DUM    Ar 2340   0.125   1.775   1.375  0.0000  0.0000  0.0000
    11DUM    Ar 2341   0.425   1.625   1.225  0.0000  0.0000  0.0000
    11DUM    Ar 2342   0.575   1.775   1.225  0.0000  0.0000  0.0000
    11DUM    Ar 2343   0.575   1.625   1.375  0.0000  0.0000  0.0000
    11DUM    Ar 2344   0.425   1.775   1.375  0.0000  0.0000  0.0000
    11DUM    Ar 2345   0.725   1.625   1.225  0.0000  0.0000  0.0000
    11DUM    Ar 2346   0.875   1.775   1.225  0.0000  0.0000  0.0000
    11DUM    Ar 2347   0.875   1.625   1.375  0.0000  0.0000  0.0000
    11DUM    Ar 2348   0.725   1.775   1.375  0.0000  0.0000  0.0000
    11DUM    Ar 2349   1.025   1.625   1.225  0.0000  0.0000  0.0000
    11DUM    Ar 2350   1.175   1.775   1.225  0.0000  0.0000  0.0000
    11DUM    Ar 2351   1.175   1.625   1.375  0.0000  0.0000  0.0000
    11DUM    Ar 2352   1.025   1.775   1.375  0.0000  0.0000  0.0000
    11DUM    Ar 2353   1.325   1.625   1.225  0.0000  0.0000  0.0000
    11DUM    Ar 2354   1.475   1.775   1.225  0.0000  0.0000  0.0000
    11DUM    Ar 2355   1.475   1.625   1.375  0.0000  0.0000  0.0000
    11DUM    Ar 2356   1.325   1.775   1.375  0.0000  0.0000  0.0000
    11DUM    Ar 2357   1.625   1.625   1.225  0.0000  0.0000  0.0000
    11DUM    Ar 2358   1.775   1.775   1.225  0.0000  0.0000  0.0000
    11DUM    Ar 2359   1.775   1.625   1.375  0.0000  0.0000  0.0000
    11DUM    Ar 2360   1.625   1.775   1.375  0.0000  0.0000  0.0000
    11DUM    Ar 2361   1.925   1.625   1.225  0.0000  0.0000  0.0000
    11DUM    Ar 2362   2.075   1.775   1.225  0.0000  0.0000  0.0000
    11DUM    Ar 2363   2.075   1.625   1.375  0.0000  0.0000  0.0000
    11DUM    Ar 2364   1.925   1.775   1.375  0.0000  0.0000  0.0000
    11DUM    Ar 2365   2.225   1.625   1.225  0.0000  0.0000  0.0000
    11DUM    Ar 2366   2.375   1.775   1.225  0.0000  0.0000  0.0000
    11DUM    Ar 2367   2.375   1.625   1.375  0.0000  0.0000  0.0000
    11DUM    Ar 2368   2.225   1.775   1.375  0.0000  0.0000  0.0000
    11DUM    Ar 2369   2.525   1.625   1.225  0.0000  0.0000  0.0000
    11DUM    Ar 2370   2.675   1.775   1.225  0.0000  0.0000  0.0000
    11DUM    Ar 2371   2.675   1.625   1.375  0.0000  0.0000  0.0000
    11DUM    Ar 2372   2.525   1.775   1.375  0.0000  0.0000  0.0000
    11DUM    Ar 2373   2.825   1.625   1.225  0.0000  0.0000  0.0000
    11DUM    Ar 2374   2.975   1.775   1.225  0.0000  0.0000  0.0000
    11DUM    Ar 2375   2.975   1.625   1.375  0.0000  0.0000  0.0000
    11DUM    Ar 2376   2.825   1.775   1.375  0.0000  0.0000  0.0000
    11DUM    Ar 2377   3.125   1.625   1.225  0.0000  0.0000  0.0000
    11DUM    Ar 2378   3.275   1.775   1.225  0.0000  0.0000  0.0000
    11DUM    Ar 2379   3.275   1.625   1.375  0.0000  0.0000  0.0000
    11DUM    Ar 2380   3.125   1.775   1.375  0.0000  0.0000  0.0000
    11DUM    Ar 2381   3.425   1.625   1.225  0.0000  0.0000  0.0000
    11DUM    Ar 2382   3.575   1.775   1.225  0.0000  0.0000  0.0000
    11DUM    Ar 2383   3.575   1.625   1.375  0.0000  0.0000  0.0000
    11DUM    Ar 2384   3.425   1.775   1.375  0.0000  0.0000  0.0000
    11DUM    Ar 2385   3.725   1.625   1.225  0.0000  0.0000  0.0000
    11DUM    Ar 2386   3.875   1.775   1.225  0.0000  0.0000  0.0000
    11DUM    Ar 2387   3.875   1.625   1.375  0.0000  0.0000  0.0000
    11DUM    Ar 2388   3.725   1.775   1.375  0.0000  0.0000  0.0000
    11DUM    Ar 2389   4.025   1.625   1.225  0.0000  0.0000  0.0000
    11DUM    Ar 2390   4.175   1.775   1.225  0.0000  0.0000  0.0000
    11DUM    Ar 2391   4.175   1.625   1.375  0.0000  0.0000  0.0000
    11DUM    Ar 2392   4.025   1.775   1.375  0.0000  0.0000  0.0000
    11DUM    Ar 2393  -0.175   1.925   1.225  0.0000  0.0000  0.0000
    11DUM    Ar 2394  -0.025   2.075   1.225  0.0000  0.0000  0.0000
    11DUM    Ar 2395  -0.025   1.925   1.375  0.0000  0.0000  0.0000
    11DUM    Ar 2396  -0.175   2.075   1.375  0.0000  0.0000  0.0000
    11DUM    Ar 2397   0.125   1.925   1.225  0.0000  0.0000  0.0000
    11DUM    Ar 2398   0.275   2.075   1.225  0.0000  0.0000  0.0000
    11DUM    Ar 2399   0.275   1.925   1.375  0.0000  0.0000  0.0000
    11DUM    Ar 2400   0.125   2.075   1.375  0.0000  0.0000  0.0000
    11DUM    Ar 2401   0.425   1.925   1.225  0.0000  0.0000  0.0000
    11DUM    Ar 2402   0.575   2.075   1.225  0.0000  0.0000  0.0000
    11DUM    Ar 2403   0.575   1.925   1.375  0.0000  0.0000  0.0000
    11DUM    Ar 2404   0.425   2.075   1.375  0.0000  0.0000  0.0000
    11DUM    Ar 2405   0.725   1.925   1.225  0.0000  0.0000  0.0000
    11DUM    Ar 2406   0.875   2.075   1.225  0.0000  0.0000  0.0000
    11DUM    Ar 2407   0.875   1.925   1.375  0.0000  0.0000  0.0000
    11DUM    Ar 2408   0.725   2.075   1.375  0.0000  0.0000  0.0000
    11DUM    Ar 2409   1.025   1.925   1.225  0.0000  0.0000  0.0000
    11DUM    Ar 2410   1.175   2.075   1.225  0.0000  0.0000  0.0000
    11DUM    Ar 2411   1.175   1.925   1.375  0.0000  0.0000  0.0000
    11DUM    Ar 2412   1.025   2.075   1.375  0.0000  0.0000  0.0000
    11DUM    Ar 2413   1.325   1.925   1.225  0.0000  0.0000  0.0000
    11DUM    Ar 2414   1.475   2.075   1.225  0.0000  0.0000  0.0000
    11DUM    Ar 2415   1.475   1.925   1.375  0.0000  0.0000  0.0000
    11DUM    Ar 2416   1.325   2.075   1.375  0.0000  0.0000  0.0000
    11DUM    Ar 2417   1.625   1.925   1.225  0.0000  0.0000  0.0000
    11DUM    Ar 2418   1.775   2.075   1.225  0.0000  0.0000  0.0000
    11DUM    Ar 2419   1.775   1.925   1.375  0.0000  0.0000  0.0000
    11DUM    Ar 2420   1.625   2.075   1.375  0.0000  0.0000  0.0000
    11DUM    Ar 2421   1.925   1.925   1.225  0.0000  0.0000  0.0000
    11DUM    Ar 2422   2.075   2.075   1.225  0.0000  0.0000  0.0000
    11DUM    Ar 2423   2.075   1.925   1.375  0.0000  0.0000  0.0000
    11DUM    Ar 2424   1.925   2.075   1.375  0.0000  0.0000  0.0000
    11DUM    Ar 2425   2.225   1.925   1.225  0.0000  0.0000  0.0000
    11DUM    Ar 2426   2.375   2.075   1.225  0.0000  0.0000  0.0000
    11DUM    Ar 2427   2.375   1.925   1.375  0.0000  0.0000  0.0000
    11DUM    Ar 2428   2.225   2.075   1.375  0.0000  0.0000  0.0000
    11DUM    Ar 2429   2.525   1.925   1.225  0.0000  0.0000  0.0000
    11DUM    Ar 2430   2.675   2.075   1.225  0.0000  0.0000  0.0000
    11DUM    Ar 2431   2.675   1.925   1.375  0.0000  0.0000  0.0000
    11DUM    Ar 2432   2.525   2.075   1.375  0.0000  0.0000  0.0000
    11DUM    Ar 2433   2.825   1.925   1.225  0.0000  0.0000  0.0000
    11DUM    Ar 2434   2.975   2.075   1.225  0.0000  0.0000  0.0000
    11DUM    Ar 2435   2.975   1.925   1.375  0.0000  0.0000  0.0000
    11DUM    Ar 2436   2.825   2.075   1.375  0.0000  0.0000  0.0000
    11DUM    Ar 2437   3.125   1.925   1.225  0.0000  0.0000  0.0000
    11DUM    Ar 2438   3.275   2.075   1.225  0.0000  0.0000  0.0000
    11DUM    Ar 2439   3.275   1.925   1.375  0.0000  0.0000  0.0000
    11DUM    Ar 2440   3.125   2.075   1.375  0.0000  0.0000  0.0000
    11DUM    Ar 2441   3.425   1.925   1.225  0.0000  0.0000  0.0000
    11DUM    Ar 2442   3.575   2.075   1.225  0.0000  0.0000  0.0000
    11DUM    Ar 2443   3.575   1.925   1.375  0.0000  0.0000  0.0000
    11DUM    Ar 2444   3.425   2.075   1.375  0.0000  0.0000  0.0000
    11DUM    Ar 2445   3.725   1.925   1.225  0.0000  0.0000  0.0000
    11DUM    Ar 2446   3.875   2.075   1.225  0.0000  0.0000  0.0000
    11DUM    Ar 2447   3.875   1.925   1.375  0.0000  0.0000  0.0000
    11DUM    Ar 2448   3.725   2.075   1.375  0.0000  0.0000  0.0000
    11DUM    Ar 2449   4.025   1.925   1.225  0.0000  0.0000  0.0000
    11DUM    Ar 2450   4.175   2.075   1.225  0.0000  0.0000  0.0000
    11DUM    Ar 2451   4.175   1.925   1.375  0.0000  0.0000  0.0000
    11DUM    Ar 2452   4.025   2.075   1.375  0.0000  0.0000  0.0000
    11DUM    Ar 2453  -0.175   2.225   1.225  0.0000  0.0000  0.0000
    11DUM    Ar 2454  -0.025   2.375   1.225  0.0000  0.0000  0.0000
    11DUM    Ar 2455  -0.025   2.225   1.375  0.0000  0.0000  0.0000
    11DUM    Ar 2456  -0.175   2.375   1.375  0.0000  0.0000  0.0000
    11DUM    Ar 2457   0.125   2.225   1.225  0.0000  0.0000  0.0000
    11DUM    Ar 2458   0.275   2.375   1.225  0.0000  0.0000  0.0000
    11DUM    Ar 2459   0.275   2.225   1.375  0.0000  0.0000  0.0000
    11DUM    Ar 2460   0.125   2.375   1.375  0.0000  0.0000  0.0000
    11DUM    Ar 2461   0.425   2.225   1.225  0.0000  0.0000  0.0000
    11DUM    Ar 2462   0.575   2.375   1.225  0.0000  0.0000  0.0000
    11DUM    Ar 2463   0.575   2.225   1.375  0.0000  0.0000  0.0000
    11DUM    Ar 2464   0.425   2.375   1.375  0.0000  0.0000  0.0000
    11DUM    Ar 2465   0.725   2.225   1.225  0.0000  0.0000  0.0000
    11DUM    Ar 2466   0.875   2.375   1.225  0.0000  0.0000  0.0000
    11DUM    Ar 2467   0.875   2.225   1.375  0.0000  0.0000  0.0000
    11DUM    Ar 2468   0.725   2.375   1.375  0.0000  0.0000  0.0000
    11DUM    Ar 2469   1.025   2.225   1.225  0.0000  0.0000  0.0000
    11DUM    Ar 2470   1.175   2.375   1.225  0.0000  0.0000  0.0000
    11DUM    Ar 2471   1.175   2.225   1.375  0.0000  0.0000  0.0000
    11DUM    Ar 2472   1.025   2.375   1.375  0.0000  0.0000  0.0000
    11DUM    Ar 2473   1.325   2.225   1.225  0.0000  0.0000  0.0000
    11DUM    Ar 2474   1.475   2.375   1.225  0.0000  0.0000  0.0000
    11DUM    Ar 2475   1.475   2.225   1.375  0.0000  0.0000  0.0000
    11DUM    Ar 2476   1.325   2.375   1.375  0.0000  0.0000  0.0000
    11DUM    Ar 2477   1.625   2.225   1.225  0.0000  0.0000  0.0000
    11DUM    Ar 2478   1.775   2.375   1.225  0.0000  0.0000  0.0000
    11DUM    Ar 2479   1.775   2.225   1.375  0.0000  0.0000  0.0000
    11DUM    Ar 2480   1.625   2.375   1.375  0.0000  0.0000  0.0000
    11DUM    Ar 2481   1.925   2.225   1.225  0.0000  0.0000  0.0000
    11DUM    Ar 2482   2.075   2.375   1.225  0.0000  0.0000  0.0000
    11DUM    Ar 2483   2.075   2.225   1.375  0.0000  0.0000  0.0000
    11DUM    Ar 2484   1.925   2.375   1.375  0.0000  0.0000  0.0000
    11DUM    Ar 2485   2.225   2.225   1.225  0.0000  0.0000  0.0000
    11DUM    Ar 2486   2.375   2.375   1.225  0.0000  0.0000  0.0000
    11DUM    Ar 2487   2.375   2.225   1.375  0.0000  0.0000  0.0000
    11DUM    Ar 2488   2.225   2.375   1.375  0.0000  0.0000  0.0000
    11DUM    Ar 2489   2.525   2.225   1.225  0.0000  0.0000  0.0000
    11DUM    Ar 2490   2.675   2.375   1.225  0.0000  0.0000  0.0000
    11DUM    Ar 2491   2.675   2.225   1.375  0.0000  0.0000  0.0000
    11DUM    Ar 2492   2.525   2.375   1.375  0.0000  0.0000  0.0000
    11DUM    Ar 2493   2.825   2.225   1.225  0.0000  0.0000  0.0000
    11DUM    Ar 2494   2.975   2.375   1.225  0.0000  0.0000  0.0000
    11DUM    Ar 2495   2.975   2.225   1.375  0.0000  0.0000  0.0000
    11DUM    Ar 2496   2.825   2.375   1.375  0.0000  0.0000  0.0000
    11DUM    Ar 2497   3.125   2.225   1.225  0.0000  0.0000  0.0000
    11DUM    Ar 2498   3.275   2.375   1.225  0.0000  0.0000  0.0000
    11DUM    Ar 2499   3.275   2.225   1.375  0.0000  0.0000  0.0000
    11DUM    Ar 2500   3.125   2.375   1.375  0.0000  0.0000  0.0000
    11DUM    Ar 2501   3.425   2.225   1.225  0.0000  0.0000  0.0000
    11DUM    Ar 2502   3.575   2.375   1.225  0.0000  0.0000  0.0000
    11DUM    Ar 2503   3.575   2.225   1.375  0.0000  0.0000  0.0000
    11DUM    Ar 2504   3.425   2.375   1.375  0.0000  0.0000  0.0000
    11DUM    Ar 2505   3.725   2.225   1.225  0.0000  0.0000  0.0000
    11DUM    Ar 2506   3.875   2.375   1.225  0.0000  0.0000  0.0000
    11DUM    Ar 2507   3.875   2.225   1.375  0.0000  0.0000  0.0000
    11DUM    Ar 2508   3.725   2.375   1.375  0.0000  0.0000  0.0000
    11DUM    Ar 2509   4.025   2.225   1.225  0.0000  0.0000  0.0000
    11DUM    Ar 2510   4.175   2.375   1.225  0.0000  0.0000  0.0000
    11DUM    Ar 2511   4.175   2.225   1.375  0.0000  0.0000  0.0000
    11DUM    Ar 2512   4.025   2.375   1.375  0.0000  0.0000  0.0000
    11DUM    Ar 2513  -0.175   2.525   1.225  0.0000  0.0000  0.0000
    11DUM    Ar 2514  -0.025   2.675   1.225  0.0000  0.0000  0.0000
    11DUM    Ar 2515  -0.025   2.525   1.375  0.0000  0.0000  0.0000
    11DUM    Ar 2516  -0.175   2.675   1.375  0.0000  0.0000  0.0000
    11DUM    Ar 2517   0.125   2.525   1.225  0.0000  0.0000  0.0000
    11DUM    Ar 2518   0.275   2.675   1.225  0.0000  0.0000  0.0000
    11DUM    Ar 2519   0.275   2.525   1.375  0.0000  0.0000  0.0000
    11DUM    Ar 2520   0.125   2.675   1.375  0.0000  0.0000  0.0000
    11DUM    Ar 2521   0.425   2.525   1.225  0.0000  0.0000  0.0000
    11DUM    Ar 2522   0.575   2.525   1.375  0.0000  0.0000  0.0000
    11DUM    Ar 2523   0.425   2.675   1.375  0.0000  0.0000  0.0000
    11DUM    Ar 2524   1.475   2.525   1.375  0.0000  0.0000  0.0000
    11DUM    Ar 2525   1.625   2.525   1.225  0.0000  0.0000  0.0000
    11DUM    Ar 2526   1.775   2.675   1.225  0.0000  0.0000  0.0000
    11DUM    Ar 2527   1.775   2.525   1.375  0.0000  0.0000  0.0000
    11DUM    Ar 2528   1.625   2.675   1.375  0.0000  0.0000  0.0000
    11DUM    Ar 2529   1.925   2.525   1.225  0.0000  0.0000  0.0000
    11DUM    Ar 2530   2.075   2.675   1.225  0.0000  0.0000  0.0000
    11DUM    Ar 2531   2.075   2.525   1.375  0.0000  0.0000  0.0000
    11DUM    Ar 2532   1.925   2.675   1.375  0.0000  0.0000  0.0000
    11DUM    Ar 2533   2.225   2.525   1.225  0.0000  0.0000  0.0000
    11DUM    Ar 2534   2.375   2.675   1.225  0.0000  0.0000  0.0000
    11DUM    Ar 2535   2.375   2.525   1.375  0.0000  0.0000  0.0000
    11DUM    Ar 2536   2.225   2.675   1.375  0.0000  0.0000  0.0000
    11DUM    Ar 2537   2.525   2.525   1.225  0.0000  0.0000  0.0000
    11DUM    Ar 2538   3.425   2.525   1.225  0.0000  0.0000  0.0000
    11DUM    Ar 2539   3.575   2.675   1.225  0.0000  0.0000  0.0000
    11DUM    Ar 2540   3.575   2.525   1.375  0.0000  0.0000  0.0000
    11DUM    Ar 2541   3.725   2.525   1.225  0.0000  0.0000  0.0000
    11DUM    Ar 2542   3.875   2.675   1.225  0.0000  0.0000  0.0000
    11DUM    Ar 2543   3.875   2.525   1.375  0.0000  0.0000  0.0000
    11DUM    Ar 2544   3.725   2.675   1.375  0.0000  0.0000  0.0000
    11DUM    Ar 2545   4.025   2.525   1.225  0.0000  0.0000  0.0000
    11DUM    Ar 2546   4.175   2.675   1.225  0.0000  0.0000  0.0000
    11DUM    Ar 2547   4.175   2.525   1.375  0.0000  0.0000  0.0000
    11DUM    Ar 2548   4.025   2.675   1.375  0.0000  0.0000  0.0000
    11DUM    Ar 2549  -0.175   2.825   1.225  0.0000  0.0000  0.0000
    11DUM    Ar 2550  -0.025   2.975   1.225  0.0000  0.0000  0.0000
    11DUM    Ar 2551  -0.025   2.825   1.375  0.0000  0.0000  0.0000
    11DUM    Ar 2552  -0.175   2.975   1.375  0.0000  0.0000  0.0000
    11DUM    Ar 2553   0.125   2.825   1.225  0.0000  0.0000  0.0000
    11DUM    Ar 2554   0.275   2.975   1.225  0.0000  0.0000  0.0000
    11DUM    Ar 2555   0.275   2.825   1.375  0.0000  0.0000  0.0000
    11DUM    Ar 2556   0.125   2.975   1.375  0.0000  0.0000  0.0000
    11DUM    Ar 2557   1.625   2.825   1.225  0.0000  0.0000  0.0000
    11DUM    Ar 2558   1.775   2.975   1.225  0.0000  0.0000  0.0000
    11DUM    Ar 2559   1.775   2.825   1.375  0.0000  0.0000  0.0000
    11DUM    Ar 2560   1.625   2.975   1.375  0.0000  0.0000  0.0000
    11DUM    Ar 2561   1.925   2.825   1.225  0.0000  0.0000  0.0000
    11DUM    Ar 2562   2.075   2.975   1.225  0.0000  0.0000  0.0000
    11DUM    Ar 2563   2.075   2.825   1.375  0.0000  0.0000  0.0000
    11DUM    Ar 2564   1.925   2.975   1.375  0.0000  0.0000  0.0000
    11DUM    Ar 2565   2.225   2.825   1.225  0.0000  0.0000  0.0000
    11DUM    Ar 2566   2.375   2.975   1.225  0.0000  0.0000  0.0000
    11DUM    Ar 2567   2.375   2.825   1.375  0.0000  0.0000  0.0000
    11DUM    Ar 2568   2.225   2.975   1.375  0.0000  0.0000  0.0000
    11DUM    Ar 2569   3.725   2.825   1.225  0.0000  0.0000  0.0000
    11DUM    Ar 2570   3.875   2.975   1.225  0.0000  0.0000  0.0000
    11DUM    Ar 2571   3.875   2.825   1.375  0.0000  0.0000  0.0000
    11DUM    Ar 2572   3.725   2.975   1.375  0.0000  0.0000  0.0000
    11DUM    Ar 2573   4.025   2.825   1.225  0.0000  0.0000  0.0000
    11DUM    Ar 2574   4.175   2.975   1.225  0.0000  0.0000  0.0000
    11DUM    Ar 2575   4.175   2.825   1.375  0.0000  0.0000  0.0000
    11DUM    Ar 2576   4.025   2.975   1.375  0.0000  0.0000  0.0000
    11DUM    Ar 2577  -0.175   3.125   1.225  0.0000  0.0000  0.0000
    11DUM    Ar 2578  -0.025   3.275   1.225  0.0000  0.0000  0.0000
    11DUM    Ar 2579  -0.025   3.125   1.375  0.0000  0.0000  0.0000
    11DUM    Ar 2580  -0.175   3.275   1.375  0.0000  0.0000  0.0000
    11DUM    Ar 2581   0.125   3.125   1.225  0.0000  0.0000  0.0000
    11DUM    Ar 2582   0.275   3.275   1.225  0.0000  0.0000  0.0000
    11DUM    Ar 2583   0.275   3.125   1.375  0.0000  0.0000  0.0000
    11DUM    Ar 2584   0.125   3.275   1.375  0.0000  0.0000  0.0000
    11DUM    Ar 2585   0.425   3.275   1.375  0.0000  0.0000  0.0000
    11DUM    Ar 2586   1.625   3.125   1.225  0.0000  0.0000  0.0000
    11DUM    Ar 2587   1.775   3.275   1.225  0.0000  0.0000  0.0000
    11DUM    Ar 2588   1.775   3.125   1.375  0.0000  0.0000  0.0000
    11DUM    Ar 2589   1.625   3.275   1.375  0.0000  0.0000  0.0000
    11DUM    Ar 2590   1.925   3.125   1.225  0.0000  0.0000  0.0000
    11DUM    Ar 2591   2.075   3.275   1.225  0.0000  0.0000  0.0000
    11DUM    Ar 2592   2.075   3.125   1.375  0.0000  0.0000  0.0000
    11DUM    Ar 2593   1.925   3.275   1.375  0.0000  0.0000  0.0000
    11DUM    Ar 2594   2.225   3.125   1.225  0.0000  0.0000  0.0000
    11DUM    Ar 2595   2.375   3.275   1.225  0.0000  0.0000  0.0000
    11DUM    Ar 2596   2.375   3.125   1.375  0.0000  0.0000  0.0000
    11DUM    Ar 2597   2.225   3.275   1.375  0.0000  0.0000  0.0000
    11DUM    Ar 2598   3.575   3.275   1.225  0.0000  0.0000  0.0000
    11DUM    Ar 2599   3.725   3.125   1.225  0.0000  0.0000  0.0000
    11DUM    Ar 2600   3.875   3.275   1.225  0.0000  0.0000  0.0000
    11DUM    Ar 2601   3.875   3.125   1.375  0.0000  0.0000  0.0000
    11DUM    Ar 2602   3.725   3.275   1.375  0.0000  0.0000  0.0000
    11DUM    Ar 2603   4.025   3.125   1.225  0.0000  0.0000  0.0000
    11DUM    Ar 2604   4.175   3.275   1.225  0.0000  0.0000  0.0000
    11DUM    Ar 2605   4.175   3.125   1.375  0.0000  0.0000  0.0000
    11DUM    Ar 2606   4.025   3.275   1.375  0.0000  0.0000  0.0000
    11DUM    Ar 2607  -0.175   3.425   1.225  0.0000  0.0000  0.0000
    11DUM    Ar 2608  -0.025   3.575   1.225  0.0000  0.0000  0.0000
    11DUM    Ar 2609  -0.025   3.425   1.375  0.0000  0.0000  0.0000
    11DUM    Ar 2610  -0.175   3.575   1.375  0.0000  0.0000  0.0000
    11DUM    Ar 2611   0.125   3.425   1.225  0.0000  0.0000  0.0000
    11DUM    Ar 2612   0.275   3.575   1.225  0.0000  0.0000  0.0000
    11DUM    Ar 2613   0.275   3.425   1.375  0.0000  0.0000  0.0000
    11DUM    Ar 2614   0.125   3.575   1.375  0.0000  0.0000  0.0000
    11DUM    Ar 2615   0.425   3.425   1.225  0.0000  0.0000  0.0000
    11DUM    Ar 2616   0.575   3.575   1.225  0.0000  0.0000  0.0000
    11DUM    Ar 2617   0.425   3.575   1.375  0.0000  0.0000  0.0000
    11DUM    Ar 2618   0.725   3.575   1.375  0.0000  0.0000  0.0000
    11DUM    Ar 2619   1.475   3.575   1.225  0.0000  0.0000  0.0000
    11DUM    Ar 2620   1.475   3.425   1.375  0.0000  0.0000  0.0000
    11DUM    Ar 2621   1.325   3.575   1.375  0.0000  0.0000  0.0000
    11DUM    Ar 2622   1.625   3.425   1.225  0.0000  0.0000  0.0000
    11DUM    Ar 2623   1.775   3.575   1.225  0.0000  0.0000  0.0000
    11DUM    Ar 2624   1.775   3.425   1.375  0.0000  0.0000  0.0000
    11DUM    Ar 2625   1.625   3.575   1.375  0.0000  0.0000  0.0000
    11DUM    Ar 2626   1.925   3.425   1.225  0.0000  0.0000  0.0000
    11DUM    Ar 2627   2.075   3.575   1.225  0.0000  0.0000  0.0000
    11DUM    Ar 2628   2.075   3.425   1.375  0.0000  0.0000  0.0000
    11DUM    Ar 2629   1.925   3.575   1.375  0.0000  0.0000  0.0000
    11DUM    Ar 2630   2.225   3.425   1.225  0.0000  0.0000  0.0000
    11DUM    Ar 2631   2.375   3.575   1.225  0.0000  0.0000  0.0000
    11DUM    Ar 2632   2.375   3.425   1.375  0.0000  0.0000  0.0000
    11DUM    Ar 2633   2.225   3.575   1.375  0.0000  0.0000  0.0000
    11DUM    Ar 2634   2.525   3.425   1.225  0.0000  0.0000  0.0000
    11DUM    Ar 2635   2.675   3.575   1.225  0.0000  0.0000  0.0000
    11DUM    Ar 2636   2.525   3.575   1.375  0.0000  0.0000  0.0000
    11DUM    Ar 2637   3.275   3.575   1.225  0.0000  0.0000  0.0000
    11DUM    Ar 2638   3.575   3.575   1.225  0.0000  0.0000  0.0000
    11DUM    Ar 2639   3.575   3.425   1.375  0.0000  0.0000  0.0000
    11DUM    Ar 2640   3.425   3.575   1.375  0.0000  0.0000  0.0000
    11DUM    Ar 2641   3.725   3.425   1.225  0.0000  0.0000  0.0000
    11DUM    Ar 2642   3.875   3.575   1.225  0.0000  0.0000  0.0000
    11DUM    Ar 2643   3.875   3.425   1.375  0.0000  0.0000  0.0000
    11DUM    Ar 2644   3.725   3.575   1.375  0.0000  0.0000  0.0000
    11DUM    Ar 2645   4.025   3.425   1.225  0.0000  0.0000  0.0000
    11DUM    Ar 2646   4.175   3.575   1.225  0.0000  0.0000  0.0000
    11DUM    Ar 2647   4.175   3.425   1.375  0.0000  0.0000  0.0000
    11DUM    Ar 2648   4.025   3.575   1.375  0.0000  0.0000  0.0000
    11DUM    Ar 2649  -0.175   3.725   1.225  0.0000  0.0000  0.0000
    11DUM    Ar 2650  -0.025   3.875   1.225  0.0000  0.0000  0.0000
    11DUM    Ar 2651  -0.025   3.725   1.375  0.0000  0.0000  0.0000
    11DUM    Ar 2652  -0.175   3.875   1.375  0.0000  0.0000  0.0000
    11DUM    Ar 2653   0.125   3.725   1.225  0.0000  0.0000  0.0000
    11DUM    Ar 2654   0.275   3.875   1.225  0.0000  0.0000  0.0000
    11DUM    Ar 2655   0.275   3.725   1.375  0.0000  0.0000  0.0000
    11DUM    Ar 2656   0.125   3.875   1.375  0.0000  0.0000  0.0000
    11DUM    Ar 2657   0.425   3.725   1.225  0.0000  0.0000  0.0000
    11DUM    Ar 2658   0.575   3.875   1.225  0.0000  0.0000  0.0000
    11DUM    Ar 2659   0.575   3.725   1.375  0.0000  0.0000  0.0000
    11DUM    Ar 2660   0.425   3.875   1.375  0.0000  0.0000  0.0000
    11DUM    Ar 2661   0.725   3.725   1.225  0.0000  0.0000  0.0000
    11DUM    Ar 2662   0.875   3.875   1.225  0.0000  0.0000  0.0000
    11DUM    Ar 2663   0.875   3.725   1.375  0.0000  0.0000  0.0000
    11DUM    Ar 2664   0.725   3.875   1.375  0.0000  0.0000  0.0000
    11DUM    Ar 2665   1.025   3.725   1.225  0.0000  0.0000  0.0000
    11DUM    Ar 2666   1.175   3.875   1.225  0.0000  0.0000  0.0000
    11DUM    Ar 2667   1.175   3.725   1.375  0.0000  0.0000  0.0000
    11DUM    Ar 2668   1.025   3.875   1.375  0.0000  0.0000  0.0000
    11DUM    Ar 2669   1.325   3.725   1.225  0.0000  0.0000  0.0000
    11DUM    Ar 2670   1.475   3.875   1.225  0.0000  0.0000  0.0000
    11DUM    Ar 2671   1.475   3.725   1.375  0.0000  0.0000  0.0000
    11DUM    Ar 2672   1.325   3.875   1.375  0.0000  0.0000  0.0000
    11DUM    Ar 2673   1.625   3.725   1.225  0.0000  0.0000  0.0000
    11DUM    Ar 2674   1.775   3.875   1.225  0.0000  0.0000  0.0000
    11DUM    Ar 2675   1.775   3.725   1.375  0.0000  0.0000  0.0000
    11DUM    Ar 2676   1.625   3.875   1.375  0.0000  0.0000  0.0000
    11DUM    Ar 2677   1.925   3.725   1.225  0.0000  0.0000  0.0000
    11DUM    Ar 2678   2.075   3.875   1.225  0.0000  0.0000  0.0000
    11DUM    Ar 2679   2.075   3.725   1.375  0.0000  0.0000  0.0000
    11DUM    Ar 2680   1.925   3.875   1.375  0.0000  0.0000  0.0000
    11DUM    Ar 2681   2.225   3.725   1.225  0.0000  0.0000  0.0000
    11DUM    Ar 2682   2.375   3.875   1.225  0.0000  0.0000  0.0000
    11DUM    Ar 2683   2.375   3.725   1.375  0.0000  0.0000  0.0000
    11DUM    Ar 2684   2.225   3.875   1.375  0.0000  0.0000  0.0000
    11DUM    Ar 2685   2.525   3.725   1.225  0.0000  0.0000  0.0000
    11DUM    Ar 2686   2.675   3.875   1.225  0.0000  0.0000  0.0000
    11DUM    Ar 2687   2.675   3.725   1.375  0.0000  0.0000  0.0000
    11DUM    Ar 2688   2.525   3.875   1.375  0.0000  0.0000  0.0000
    11DUM    Ar 2689   2.825   3.725   1.225  0.0000  0.0000  0.0000
    11DUM    Ar 2690   2.975   3.875   1.225  0.0000  0.0000  0.0000
    11DUM    Ar 2691   2.975   3.725   1.375  0.0000  0.0000  0.0000
    11DUM    Ar 2692   2.825   3.875   1.375  0.0000  0.0000  0.0000
    11DUM    Ar 2693   3.125   3.725   1.225  0.0000  0.0000  0.0000
    11DUM    Ar 2694   3.275   3.875   1.225  0.0000  0.0000  0.0000
    11DUM    Ar 2695   3.275   3.725   1.375  0.0000  0.0000  0.0000
    11DUM    Ar 2696   3.125   3.875   1.375  0.0000  0.0000  0.0000
    11DUM    Ar 2697   3.425   3.725   1.225  0.0000  0.0000  0.0000
    11DUM    Ar 2698   3.575   3.875   1.225  0.0000  0.0000  0.0000
    11DUM    Ar 2699   3.575   3.725   1.375  0.0000  0.0000  0.0000
    11DUM    Ar 2700   3.425   3.875   1.375  0.0000  0.0000  0.0000
    11DUM    Ar 2701   3.725   3.725   1.225  0.0000  0.0000  0.0000
    11DUM    Ar 2702   3.875   3.875   1.225  0.0000  0.0000  0.0000
    11DUM    Ar 2703   3.875   3.725   1.375  0.0000  0.0000  0.0000
    11DUM    Ar 2704   3.725   3.875   1.375  0.0000  0.0000  0.0000
    11DUM    Ar 2705   4.025   3.725   1.225  0.0000  0.0000  0.0000
    11DUM    Ar 2706   4.175   3.875   1.225  0.0000  0.0000  0.0000
    11DUM    Ar 2707   4.175   3.725   1.375  0.0000  0.0000  0.0000
    11DUM    Ar 2708   4.025   3.875   1.375  0.0000  0.0000  0.0000
    11DUM    Ar 2709  -0.175   4.025   1.225  0.0000  0.0000  0.0000
    11DUM    Ar 2710  -0.025   4.175   1.225  0.0000  0.0000  0.0000
    11DUM    Ar 2711  -0.025   4.025   1.375  0.0000  0.0000  0.0000
    11DUM    Ar 2712  -0.175   4.175   1.375  0.0000  0.0000  0.0000
    11DUM    Ar 2713   0.125   4.025   1.225  0.0000  0.0000  0.0000
    11DUM    Ar 2714   0.275   4.175   1.225  0.0000  0.0000  0.0000
    11DUM    Ar 2715   0.275   4.025   1.375  0.0000  0.0000  0.0000
    11DUM    Ar 2716   0.125   4.175   1.375  0.0000  0.0000  0.0000
    11DUM    Ar 2717   0.425   4.025   1.225  0.0000  0.0000  0.0000
    11DUM    Ar 2718   0.575   4.175   1.225  0.0000  0.0000  0.0000
    11DUM    Ar 2719   0.575   4.025   1.375  0.0000  0.0000  0.0000
    11DUM    Ar 2720   0.425   4.175   1.375  0.0000  0.0000  0.0000
    11DUM    Ar 2721   0.725   4.025   1.225  0.0000  0.0000  0.0000
    11DUM    Ar 2722   0.875   4.175   1.225  0.0000  0.0000  0.0000
    11DUM    Ar 2723   0.875   4.025   1.375  0.0000  0.0000  0.0000
    11DUM    Ar 2724   0.725   4.175   1.375  0.0000  0.0000  0.0000
    11DUM    Ar 2725   1.025   4.025   1.225  0.0000  0.0000  0.0000
    11DUM    Ar 2726   1.175   4.175   1.225  0.0000  0.0000  0.0000
    11DUM    Ar 2727   1.175   4.025   1.375  0.0000  0.0000  0.0000
    11DUM    Ar 2728   1.025   4.175   1.375  0.0000  0.0000  0.0000
    11DUM    Ar 2729   1.325   4.025   1.225  0.0000  0.0000  0.0000
    11DUM    Ar 2730   1.475   4.175   1.225  0.0000  0.0000  0.0000
    11DUM    Ar 2731   1.475   4.025   1.375  0.0000  0.0000  0.0000
    11DUM    Ar 2732   1.325   4.175   1.375  0.0000  0.0000  0.0000
    11DUM    Ar 2733   1.625   4.025   1.225  0.0000  0.0000  0.0000
    11DUM    Ar 2734   1.775   4.175   1.225  0.0000  0.0000  0.0000
    11DUM    Ar 2735   1.775   4.025   1.375  0.0000  0.0000  0.0000
    11DUM    Ar 2736   1.625   4.175   1.375  0.0000  0.0000  0.0000
    11DUM    Ar 2737   1.925   4.025   1.225  0.0000  0.0000  0.0000
    11DUM    Ar 2738   2.075   4.175   1.225  0.0000  0.0000  0.0000
    11DUM    Ar 2739   2.075   4.025   1.375  0.0000  0.0000  0.0000
    11DUM    Ar 2740   1.925   4.175   1.375  0.0000  0.0000  0.0000
    11DUM    Ar 2741   2.225   4.025   1.225  0.0000  0.0000  0.0000
    11DUM    Ar 2742   2.375   4.175   1.225  0.0000  0.0000  0.0000
    11DUM    Ar 2743   2.375   4.025   1.375  0.0000  0.0000  0.0000
    11DUM    Ar 2744   2.225   4.175   1.375  0.0000  0.0000  0.0000
    11DUM    Ar 2745   2.525   4.025   1.225  0.0000  0.0000  0.0000
    11DUM    Ar 2746   2.675   4.175   1.225  0.0000  0.0000  0.0000
    11DUM    Ar 2747   2.675   4.025   1.375  0.0000  0.0000  0.0000
    11DUM    Ar 2748   2.525   4.175   1.375  0.0000  0.0000  0.0000
    11DUM    Ar 2749   2.825   4.025   1.225  0.0000  0.0000  0.0000
    11DUM    Ar 2750   2.975   4.175   1.225  0.0000  0.0000  0.0000
    11DUM    Ar 2751   2.975   4.025   1.375  0.0000  0.0000  0.0000
    11DUM    Ar 2752   2.825   4.175   1.375  0.0000  0.0000  0.0000
    11DUM    Ar 2753   3.125   4.025   1.225  0.0000  0.0000  0.0000
    11DUM    Ar 2754   3.275   4.175   1.225  0.0000  0.0000  0.0000
    11DUM    Ar 2755   3.275   4.025   1.375  0.0000  0.0000  0.0000
    11DUM    Ar 2756   3.125   4.175   1.375  0.0000  0.0000  0.0000
    11DUM    Ar 2757   3.425   4.025   1.225  0.0000  0.0000  0.0000
    11DUM    Ar 2758   3.575   4.175   1.225  0.0000  0.0000  0.0000
    11DUM    Ar 2759   3.575   4.025   1.375  0.0000  0.0000  0.0000
    11DUM    Ar 2760   3.425   4.175   1.375  0.0000  0.0000  0.0000
    11DUM    Ar 2761   3.725   4.025   1.225  0.0000  0.0000  0.0000
    11DUM    Ar 2762   3.875   4.175   1.225  0.0000  0.0000  0.0000
    11DUM    Ar 2763   3.875   4.025   1.375  0.0000  0.0000  0.0000
    11DUM    Ar 2764   3.725   4.175   1.375  0.0000  0.0000  0.0000
    11DUM    Ar 2765   4.025   4.025   1.225  0.0000  0.0000  0.0000
    11DUM    Ar 2766   4.175   4.175   1.225  0.0000  0.0000  0.0000
    11DUM    Ar 2767   4.175   4.025   1.375  0.0000  0.0000  0.0000
    11DUM    Ar 2768   4.025   4.175   1.375  0.0000  0.0000  0.0000
    11DUM    Ar 2769  -0.175  -0.175   1.525  0.0000  0.0000  0.0000
    11DUM    Ar 2770  -0.025  -0.025   1.525  0.0000  0.0000  0.0000
    11DUM    Ar 2771  -0.025  -0.175   1.675  0.0000  0.0000  0.0000
    11DUM    Ar 2772  -0.175  -0.025   1.675  0.0000  0.0000  0.0000
    11DUM    Ar 2773   0.125  -0.175   1.525  0.0000  0.0000  0.0000
    11DUM    Ar 2774   0.275  -0.025   1.525  0.0000  0.0000  0.0000
    11DUM    Ar 2775   0.275  -0.175   1.675  0.0000  0.0000  0.0000
    11DUM    Ar 2776   0.125  -0.025   1.675  0.0000  0.0000  0.0000
    11DUM    Ar 2777   0.425  -0.175   1.525  0.0000  0.0000  0.0000
    11DUM    Ar 2778   0.575  -0.025   1.525  0.0000  0.0000  0.0000
    11DUM    Ar 2779   0.575  -0.175   1.675  0.0000  0.0000  0.0000
    11DUM    Ar 2780   0.425  -0.025   1.675  0.0000  0.0000  0.0000
    11DUM    Ar 2781   0.725  -0.175   1.525  0.0000  0.0000  0.0000
    11DUM    Ar 2782   0.875  -0.025   1.525  0.0000  0.0000  0.0000
    11DUM    Ar 2783   0.875  -0.175   1.675  0.0000  0.0000  0.0000
    11DUM    Ar 2784   0.725  -0.025   1.675  0.0000  0.0000  0.0000
    11DUM    Ar 2785   1.025  -0.175   1.525  0.0000  0.0000  0.0000
    11DUM    Ar 2786   1.175  -0.025   1.525  0.0000  0.0000  0.0000
    11DUM    Ar 2787   1.175  -0.175   1.675  0.0000  0.0000  0.0000
    11DUM    Ar 2788   1.025  -0.025   1.675  0.0000  0.0000  0.0000
    11DUM    Ar 2789   1.325  -0.175   1.525  0.0000  0.0000  0.0000
    11DUM    Ar 2790   1.475  -0.025   1.525  0.0000  0.0000  0.0000
    11DUM    Ar 2791   1.475  -0.175   1.675  0.0000  0.0000  0.0000
    11DUM    Ar 2792   1.325  -0.025   1.675  0.0000  0.0000  0.0000
    11DUM    Ar 2793   1.625  -0.175   1.525  0.0000  0.0000  0.0000
    11DUM    Ar 2794   1.775  -0.025   1.525  0.0000  0.0000  0.0000
    11DUM    Ar 2795   1.775  -0.175   1.675  0.0000  0.0000  0.0000
    11DUM    Ar 2796   1.625  -0.025   1.675  0.0000  0.0000  0.0000
    11DUM    Ar 2797   1.925  -0.175   1.525  0.0000  0.0000  0.0000
    11DUM    Ar 2798   2.075  -0.025   1.525  0.0000  0.0000  0.0000
    11DUM    Ar 2799   2.075  -0.175   1.675  0.0000  0.0000  0.0000
    11DUM    Ar 2800   1.925  -0.025   1.675  0.0000  0.0000  0.0000
    11DUM    Ar 2801   2.225  -0.175   1.525  0.0000  0.0000  0.0000
    11DUM    Ar 2802   2.375  -0.025   1.525  0.0000  0.0000  0.0000
    11DUM    Ar 2803   2.375  -0.175   1.675  0.0000  0.0000  0.0000
    11DUM    Ar 2804   2.225  -0.025   1.675  0.0000  0.0000  0.0000
    11DUM    Ar 2805   2.525  -0.175   1.525  0.0000  0.0000  0.0000
    11DUM    Ar 2806   2.675  -0.025   1.525  0.0000  0.0000  0.0000
    11DUM    Ar 2807   2.675  -0.175   1.675  0.0000  0.0000  0.0000
    11DUM    Ar 2808   2.525  -0.025   1.675  0.0000  0.0000  0.0000
    11DUM    Ar 2809   2.825  -0.175   1.525  0.0000  0.0000  0.0000
    11DUM    Ar 2810   2.975  -0.025   1.525  0.0000  0.0000  0.0000
    11DUM    Ar 2811   2.975  -0.175   1.675  0.0000  0.0000  0.0000
    11DUM    Ar 2812   2.825  -0.025   1.675  0.0000  0.0000  0.0000
    11DUM    Ar 2813   3.125  -0.175   1.525  0.0000  0.0000  0.0000
    11DUM    Ar 2814   3.275  -0.025   1.525  0.0000  0.0000  0.0000
    11DUM    Ar 2815   3.275  -0.175   1.675  0.0000  0.0000  0.0000
    11DUM    Ar 2816   3.125  -0.025   1.675  0.0000  0.0000  0.0000
    11DUM    Ar 2817   3.425  -0.175   1.525  0.0000  0.0000  0.0000
    11DUM    Ar 2818   3.575  -0.025   1.525  0.0000  0.0000  0.0000
    11DUM    Ar 2819   3.575  -0.175   1.675  0.0000  0.0000  0.0000
    11DUM    Ar 2820   3.425  -0.025   1.675  0.0000  0.0000  0.0000
    11DUM    Ar 2821   3.725  -0.175   1.525  0.0000  0.0000  0.0000
    11DUM    Ar 2822   3.875  -0.025   1.525  0.0000  0.0000  0.0000
    11DUM    Ar 2823   3.875  -0.175   1.675  0.0000  0.0000  0.0000
    11DUM    Ar 2824   3.725  -0.025   1.675  0.0000  0.0000  0.0000
    11DUM    Ar 2825   4.025  -0.175   1.525  0.0000  0.0000  0.0000
    11DUM    Ar 2826   4.175  -0.025   1.525  0.0000  0.0000  0.0000
    11DUM    Ar 2827   4.175  -0.175   1.675  0.0000  0.0000  0.0000
    11DUM    Ar 2828   4.025  -0.025   1.675  0.0000  0.0000  0.0000
    11DUM    Ar 2829  -0.175   0.125   1.525  0.0000  0.0000  0.0000
    11DUM    Ar 2830  -0.025   0.275   1.525  0.0000  0.0000  0.0000
    11DUM    Ar 2831  -0.025   0.125   1.675  0.0000  0.0000  0.0000
    11DUM    Ar 2832  -0.175   0.275   1.675  0.0000  0.0000  0.0000
    11DUM    Ar 2833   0.125   0.125   1.525  0.0000  0.0000  0.0000
    11DUM    Ar 2834   0.275   0.275   1.525  0.0000  0.0000  0.0000
    11DUM    Ar 2835   0.275   0.125   1.675  0.0000  0.0000  0.0000
    11DUM    Ar 2836   0.125   0.275   1.675  0.0000  0.0000  0.0000
    11DUM    Ar 2837   0.425   0.125   1.525  0.0000  0.0000  0.0000
    11DUM    Ar 2838   0.575   0.275   1.525  0.0000  0.0000  0.0000
    11DUM    Ar 2839   0.575   0.125   1.675  0.0000  0.0000  0.0000
    11DUM    Ar 2840   0.425   0.275   1.675  0.0000  0.0000  0.0000
    11DUM    Ar 2841   0.725   0.125   1.525  0.0000  0.0000  0.0000
    11DUM    Ar 2842   0.875   0.275   1.525  0.0000  0.0000  0.0000
    11DUM    Ar 2843   0.875   0.125   1.675  0.0000  0.0000  0.0000
    11DUM    Ar 2844   0.725   0.275   1.675  0.0000  0.0000  0.0000
    11DUM    Ar 2845   1.025   0.125   1.525  0.0000  0.0000  0.0000
    11DUM    Ar 2846   1.175   0.275   1.525  0.0000  0.0000  0.0000
    11DUM    Ar 2847   1.175   0.125   1.675  0.0000  0.0000  0.0000
    11DUM    Ar 2848   1.025   0.275   1.675  0.0000  0.0000  0.0000
    11DUM    Ar 2849   1.325   0.125   1.525  0.0000  0.0000  0.0000
    11DUM    Ar 2850   1.475   0.275   1.525  0.0000  0.0000  0.0000
    11DUM    Ar 2851   1.475   0.125   1.675  0.0000  0.0000  0.0000
    11DUM    Ar 2852   1.325   0.275   1.675  0.0000  0.0000  0.0000
    11DUM    Ar 2853   1.625   0.125   1.525  0.0000  0.0000  0.0000
    11DUM    Ar 2854   1.775   0.275   1.525  0.0000  0.0000  0.0000
    11DUM    Ar 2855   1.775   0.125   1.675  0.0000  0.0000  0.0000
    11DUM    Ar 2856   1.625   0.275   1.675  0.0000  0.0000  0.0000
    11DUM    Ar 2857   1.925   0.125   1.525  0.0000  0.0000  0.0000
    11DUM    Ar 2858   2.075   0.275   1.525  0.0000  0.0000  0.0000
    11DUM    Ar 2859   2.075   0.125   1.675  0.0000  0.0000  0.0000
    11DUM    Ar 2860   1.925   0.275   1.675  0.0000  0.0000  0.0000
    11DUM    Ar 2861   2.225   0.125   1.525  0.0000  0.0000  0.0000
    11DUM    Ar 2862   2.375   0.275   1.525  0.0000  0.0000  0.0000
    11DUM    Ar 2863   2.375   0.125   1.675  0.0000  0.0000  0.0000
    11DUM    Ar 2864   2.225   0.275   1.675  0.0000  0.0000  0.0000
    11DUM    Ar 2865   2.525   0.125   1.525  0.0000  0.0000  0.0000
    11DUM    Ar 2866   2.675   0.275   1.525  0.0000  0.0000  0.0000
    11DUM    Ar 2867   2.675   0.125   1.675  0.0000  0.0000  0.0000
    11DUM    Ar 2868   2.525   0.275   1.675  0.0000  0.0000  0.0000
    11DUM    Ar 2869   2.825   0.125   1.525  0.0000  0.0000  0.0000
    11DUM    Ar 2870   2.975   0.275   1.525  0.0000  0.0000  0.0000
    11DUM    Ar 2871   2.975   0.125   1.675  0.0000  0.0000  0.0000
    11DUM    Ar 2872   2.825   0.275   1.675  0.0000  0.0000  0.0000
    11DUM    Ar 2873   3.125   0.125   1.525  0.0000  0.0000  0.0000
    11DUM    Ar 2874   3.275   0.275   1.525  0.0000  0.0000  0.0000
    11DUM    Ar 2875   3.275   0.125   1.675  0.0000  0.0000  0.0000
    11DUM    Ar 2876   3.125   0.275   1.675  0.0000  0.0000  0.0000
    11DUM    Ar 2877   3.425   0.125   1.525  0.0000  0.0000  0.0000
    11DUM    Ar 2878   3.575   0.275   1.525  0.0000  0.0000  0.0000
    11DUM    Ar 2879   3.575   0.125   1.675  0.0000  0.0000  0.0000
    11DUM    Ar 2880   3.425   0.275   1.675  0.0000  0.0000  0.0000
    11DUM    Ar 2881   3.725   0.125   1.525  0.0000  0.0000  0.0000
    11DUM    Ar 2882   3.875   0.275   1.525  0.0000  0.0000  0.0000
    11DUM    Ar 2883   3.875   0.125   1.675  0.0000  0.0000  0.0000
    11DUM    Ar 2884   3.725   0.275   1.675  0.0000  0.0000  0.0000
    11DUM    Ar 2885   4.025   0.125   1.525  0.0000  0.0000  0.0000
    11DUM    Ar 2886   4.175   0.275   1.525  0.0000  0.0000  0.0000
    11DUM    Ar 2887   4.175   0.125   1.675  0.0000  0.0000  0.0000
    11DUM    Ar 2888   4.025   0.275   1.675  0.0000  0.0000  0.0000
    11DUM    Ar 2889  -0.175   0.425   1.525  0.0000  0.0000  0.0000
    11DUM    Ar 2890  -0.025   0.575   1.525  0.0000  0.0000  0.0000
    11DUM    Ar 2891  -0.025   0.425   1.675  0.0000  0.0000  0.0000
    11DUM    Ar 2892  -0.175   0.575   1.675  0.0000  0.0000  0.0000
    11DUM    Ar 2893   0.125   0.425   1.525  0.0000  0.0000  0.0000
    11DUM    Ar 2894   0.275   0.575   1.525  0.0000  0.0000  0.0000
    11DUM    Ar 2895   0.275   0.425   1.675  0.0000  0.0000  0.0000
    11DUM    Ar 2896   0.125   0.575   1.675  0.0000  0.0000  0.0000
    11DUM    Ar 2897   0.425   0.425   1.525  0.0000  0.0000  0.0000
    11DUM    Ar 2898   0.575   0.425   1.675  0.0000  0.0000  0.0000
    11DUM    Ar 2899   0.425   0.575   1.675  0.0000  0.0000  0.0000
    11DUM    Ar 2900   0.725   0.425   1.525  0.0000  0.0000  0.0000
    11DUM    Ar 2901   1.325   0.425   1.525  0.0000  0.0000  0.0000
    11DUM    Ar 2902   1.475   0.575   1.525  0.0000  0.0000  0.0000
    11DUM    Ar 2903   1.475   0.425   1.675  0.0000  0.0000  0.0000
    11DUM    Ar 2904   1.625   0.425   1.525  0.0000  0.0000  0.0000
    11DUM    Ar 2905   1.775   0.575   1.525  0.0000  0.0000  0.0000
    11DUM    Ar 2906   1.775   0.425   1.675  0.0000  0.0000  0.0000
    11DUM    Ar 2907   1.625   0.575   1.675  0.0000  0.0000  0.0000
    11DUM    Ar 2908   1.925   0.425   1.525  0.0000  0.0000  0.0000
    11DUM    Ar 2909   2.075   0.575   1.525  0.0000  0.0000  0.0000
    11DUM    Ar 2910   2.075   0.425   1.675  0.0000  0.0000  0.0000
    11DUM    Ar 2911   1.925   0.575   1.675  0.0000  0.0000  0.0000
    11DUM    Ar 2912   2.225   0.425   1.525  0.0000  0.0000  0.0000
    11DUM    Ar 2913   2.375   0.575   1.525  0.0000  0.0000  0.0000
    11DUM    Ar 2914   2.375   0.425   1.675  0.0000  0.0000  0.0000
    11DUM    Ar 2915   2.225   0.575   1.675  0.0000  0.0000  0.0000
    11DUM    Ar 2916   2.525   0.425   1.525  0.0000  0.0000  0.0000
    11DUM    Ar 2917   2.675   0.425   1.675  0.0000  0.0000  0.0000
    11DUM    Ar 2918   2.525   0.575   1.675  0.0000  0.0000  0.0000
    11DUM    Ar 2919   3.275   0.425   1.675  0.0000  0.0000  0.0000
    11DUM    Ar 2920   3.425   0.425   1.525  0.0000  0.0000  0.0000
    11DUM    Ar 2921   3.575   0.575   1.525  0.0000  0.0000  0.0000
    11DUM    Ar 2922   3.575   0.425   1.675  0.0000  0.0000  0.0000
    11DUM    Ar 2923   3.725   0.425   1.525  0.0000  0.0000  0.0000
    11DUM    Ar 2924   3.875   0.575   1.525  0.0000  0.0000  0.0000
    11DUM    Ar 2925   3.875   0.425   1.675  0.0000  0.0000  0.0000
    11DUM    Ar 2926   3.725   0.575   1.675  0.0000  0.0000  0.0000
    11DUM    Ar 2927   4.025   0.425   1.525  0.0000  0.0000  0.0000
    11DUM    Ar 2928   4.175   0.575   1.525  0.0000  0.0000  0.0000
    11DUM    Ar 2929   4.175   0.425   1.675  0.0000  0.0000  0.0000
    11DUM    Ar 2930   4.025   0.575   1.675  0.0000  0.0000  0.0000
    11DUM    Ar 2931  -0.175   0.725   1.525  0.0000  0.0000  0.0000
    11DUM    Ar 2932  -0.025   0.875   1.525  0.0000  0.0000  0.0000
    11DUM    Ar 2933  -0.025   0.725   1.675  0.0000  0.0000  0.0000
    11DUM    Ar 2934  -0.175   0.875   1.675  0.0000  0.0000  0.0000
    11DUM    Ar 2935   0.125   0.725   1.525  0.0000  0.0000  0.0000
    11DUM    Ar 2936   0.275   0.875   1.525  0.0000  0.0000  0.0000
    11DUM    Ar 2937   0.275   0.725   1.675  0.0000  0.0000  0.0000
    11DUM    Ar 2938   0.125   0.875   1.675  0.0000  0.0000  0.0000
    11DUM    Ar 2939   0.425   0.725   1.525  0.0000  0.0000  0.0000
    11DUM    Ar 2940   1.625   0.725   1.525  0.0000  0.0000  0.0000
    11DUM    Ar 2941   1.775   0.875   1.525  0.0000  0.0000  0.0000
    11DUM    Ar 2942   1.775   0.725   1.675  0.0000  0.0000  0.0000
    11DUM    Ar 2943   1.625   0.875   1.675  0.0000  0.0000  0.0000
    11DUM    Ar 2944   1.925   0.725   1.525  0.0000  0.0000  0.0000
    11DUM    Ar 2945   2.075   0.875   1.525  0.0000  0.0000  0.0000
    11DUM    Ar 2946   2.075   0.725   1.675  0.0000  0.0000  0.0000
    11DUM    Ar 2947   1.925   0.875   1.675  0.0000  0.0000  0.0000
    11DUM    Ar 2948   2.225   0.725   1.525  0.0000  0.0000  0.0000
    11DUM    Ar 2949   2.375   0.875   1.525  0.0000  0.0000  0.0000
    11DUM    Ar 2950   2.375   0.725   1.675  0.0000  0.0000  0.0000
    11DUM    Ar 2951   2.225   0.875   1.675  0.0000  0.0000  0.0000
    11DUM    Ar 2952   3.575   0.725   1.675  0.0000  0.0000  0.0000
    11DUM    Ar 2953   3.725   0.725   1.525  0.0000  0.0000  0.0000
    11DUM    Ar 2954   3.875   0.875   1.525  0.0000  0.0000  0.0000
    11DUM    Ar 2955   3.875   0.725   1.675  0.0000  0.0000  0.0000
    11DUM    Ar 2956   3.725   0.875   1.675  0.0000  0.0000  0.0000
    11DUM    Ar 2957   4.025   0.725   1.525  0.0000  0.0000  0.0000
    11DUM    Ar 2958   4.175   0.875   1.525  0.0000  0.0000  0.0000
    11DUM    Ar 2959   4.175   0.725   1.675  0.0000  0.0000  0.0000
    11DUM    Ar 2960   4.025   0.875   1.675  0.0000  0.0000  0.0000
    11DUM    Ar 2961  -0.175   1.025   1.525  0.0000  0.0000  0.0000
    11DUM    Ar 2962  -0.025   1.175   1.525  0.0000  0.0000  0.0000
    11DUM    Ar 2963  -0.025   1.025   1.675  0.0000  0.0000  0.0000
    11DUM    Ar 2964  -0.175   1.175   1.675  0.0000  0.0000  0.0000
    11DUM    Ar 2965   0.125   1.025   1.525  0.0000  0.0000  0.0000
    11DUM    Ar 2966   0.275   1.175   1.525  0.0000  0.0000  0.0000
    11DUM    Ar 2967   0.275   1.025   1.675  0.0000  0.0000  0.0000
    11DUM    Ar 2968   0.125   1.175   1.675  0.0000  0.0000  0.0000
    11DUM    Ar 2969   1.625   1.025   1.525  0.0000  0.0000  0.0000
    11DUM    Ar 2970   1.775   1.175   1.525  0.0000  0.0000  0.0000
    11DUM    Ar 2971   1.775   1.025   1.675  0.0000  0.0000  0.0000
    11DUM    Ar 2972   1.625   1.175   1.675  0.0000  0.0000  0.0000
    11DUM    Ar 2973   1.925   1.025   1.525  0.0000  0.0000  0.0000
    11DUM    Ar 2974   2.075   1.175   1.525  0.0000  0.0000  0.0000
    11DUM    Ar 2975   2.075   1.025   1.675  0.0000  0.0000  0.0000
    11DUM    Ar 2976   1.925   1.175   1.675  0.0000  0.0000  0.0000
    11DUM    Ar 2977   2.225   1.025   1.525  0.0000  0.0000  0.0000
    11DUM    Ar 2978   2.375   1.175   1.525  0.0000  0.0000  0.0000
    11DUM    Ar 2979   2.375   1.025   1.675  0.0000  0.0000  0.0000
    11DUM    Ar 2980   2.225   1.175   1.675  0.0000  0.0000  0.0000
    11DUM    Ar 2981   3.725   1.025   1.525  0.0000  0.0000  0.0000
    11DUM    Ar 2982   3.875   1.175   1.525  0.0000  0.0000  0.0000
    11DUM    Ar 2983   3.875   1.025   1.675  0.0000  0.0000  0.0000
    11DUM    Ar 2984   3.725   1.175   1.675  0.0000  0.0000  0.0000
    11DUM    Ar 2985   4.025   1.025   1.525  0.0000  0.0000  0.0000
    11DUM    Ar 2986   4.175   1.175   1.525  0.0000  0.0000  0.0000
    11DUM    Ar 2987   4.175   1.025   1.675  0.0000  0.0000  0.0000
    11DUM    Ar 2988   4.025   1.175   1.675  0.0000  0.0000  0.0000
    11DUM    Ar 2989  -0.175   1.325   1.525  0.0000  0.0000  0.0000
    11DUM    Ar 2990  -0.025   1.475   1.525  0.0000  0.0000  0.0000
    11DUM    Ar 2991  -0.025   1.325   1.675  0.0000  0.0000  0.0000
    11DUM    Ar 2992  -0.175   1.475   1.675  0.0000  0.0000  0.0000
    11DUM    Ar 2993   0.125   1.325   1.525  0.0000  0.0000  0.0000
    11DUM    Ar 2994   0.275   1.475   1.525  0.0000  0.0000  0.0000
    11DUM    Ar 2995   0.275   1.325   1.675  0.0000  0.0000  0.0000
    11DUM    Ar 2996   0.125   1.475   1.675  0.0000  0.0000  0.0000
    11DUM    Ar 2997   0.425   1.325   1.525  0.0000  0.0000  0.0000
    11DUM    Ar 2998   0.575   1.475   1.525  0.0000  0.0000  0.0000
    11DUM    Ar 2999   0.425   1.475   1.675  0.0000  0.0000  0.0000
    11DUM    Ar 3000   1.475   1.475   1.525  0.0000  0.0000  0.0000
    11DUM    Ar 3001   1.625   1.325   1.525  0.0000  0.0000  0.0000
    11DUM    Ar 3002   1.775   1.475   1.525  0.0000  0.0000  0.0000
    11DUM    Ar 3003   1.775   1.325   1.675  0.0000  0.0000  0.0000
    11DUM    Ar 3004   1.625   1.475   1.675  0.0000  0.0000  0.0000
    11DUM    Ar 3005   1.925   1.325   1.525  0.0000  0.0000  0.0000
    11DUM    Ar 3006   2.075   1.475   1.525  0.0000  0.0000  0.0000
    11DUM    Ar 3007   2.075   1.325   1.675  0.0000  0.0000  0.0000
    11DUM    Ar 3008   1.925   1.475   1.675  0.0000  0.0000  0.0000
    11DUM    Ar 3009   2.225   1.325   1.525  0.0000  0.0000  0.0000
    11DUM    Ar 3010   2.375   1.475   1.525  0.0000  0.0000  0.0000
    11DUM    Ar 3011   2.375   1.325   1.675  0.0000  0.0000  0.0000
    11DUM    Ar 3012   2.225   1.475   1.675  0.0000  0.0000  0.0000
    11DUM    Ar 3013   2.525   1.475   1.675  0.0000  0.0000  0.0000
    11DUM    Ar 3014   3.575   1.475   1.525  0.0000  0.0000  0.0000
    11DUM    Ar 3015   3.575   1.325   1.675  0.0000  0.0000  0.0000
    11DUM    Ar 3016   3.425   1.475   1.675  0.0000  0.0000  0.0000
    11DUM    Ar 3017   3.725   1.325   1.525  0.0000  0.0000  0.0000
    11DUM    Ar 3018   3.875   1.475   1.525  0.0000  0.0000  0.0000
    11DUM    Ar 3019   3.875   1.325   1.675  0.0000  0.0000  0.0000
    11DUM    Ar 3020   3.725   1.475   1.675  0.0000  0.0000  0.0000
    11DUM    Ar 3021   4.025   1.325   1.525  0.0000  0.0000  0.0000
    11DUM    Ar 3022   4.175   1.475   1.525  0.0000  0.0000  0.0000
    11DUM    Ar 3023   4.175   1.325   1.675  0.0000  0.0000  0.0000
    11DUM    Ar 3024   4.025   1.475   1.675  0.0000  0.0000  0.0000
    11DUM    Ar 3025  -0.175   1.625   1.525  0.0000  0.0000  0.0000
    11DUM    Ar 3026  -0.025   1.775   1.525  0.0000  0.0000  0.0000
    11DUM    Ar 3027  -0.025   1.625   1.675  0.0000  0.0000  0.0000
    11DUM    Ar 3028  -0.175   1.775   1.675  0.0000  0.0000  0.0000
    11DUM    Ar 3029   0.125   1.625   1.525  0.0000  0.0000  0.0000
    11DUM    Ar 3030   0.275   1.775   1.525  0.0000  0.0000  0.0000
    11DUM    Ar 3031   0.275   1.625   1.675  0.0000  0.0000  0.0000
    11DUM    Ar 3032   0.125   1.775   1.675  0.0000  0.0000  0.0000
    11DUM    Ar 3033   0.425   1.625   1.525  0.0000  0.0000  0.0000
    11DUM    Ar 3034   0.575   1.775   1.525  0.0000  0.0000  0.0000
    11DUM    Ar 3035   0.575   1.625   1.675  0.0000  0.0000  0.0000
    11DUM    Ar 3036   0.425   1.775   1.675  0.0000  0.0000  0.0000
    11DUM    Ar 3037   0.725   1.625   1.525  0.0000  0.0000  0.0000
    11DUM    Ar 3038   0.875   1.775   1.525  0.0000  0.0000  0.0000
    11DUM    Ar 3039   0.875   1.625   1.675  0.0000  0.0000  0.0000
    11DUM    Ar 3040   0.725   1.775   1.675  0.0000  0.0000  0.0000
    11DUM    Ar 3041   1.025   1.625   1.525  0.0000  0.0000  0.0000
    11DUM    Ar 3042   1.175   1.775   1.525  0.0000  0.0000  0.0000
    11DUM    Ar 3043   1.175   1.625   1.675  0.0000  0.0000  0.0000
    11DUM    Ar 3044   1.025   1.775   1.675  0.0000  0.0000  0.0000
    11DUM    Ar 3045   1.325   1.625   1.525  0.0000  0.0000  0.0000
    11DUM    Ar 3046   1.475   1.775   1.525  0.0000  0.0000  0.0000
    11DUM    Ar 3047   1.475   1.625   1.675  0.0000  0.0000  0.0000
    11DUM    Ar 3048   1.325   1.775   1.675  0.0000  0.0000  0.0000
    11DUM    Ar 3049   1.625   1.625   1.525  0.0000  0.0000  0.0000
    11DUM    Ar 3050   1.775   1.775   1.525  0.0000  0.0000  0.0000
    11DUM    Ar 3051   1.775   1.625   1.675  0.0000  0.0000  0.0000
    11DUM    Ar 3052   1.625   1.775   1.675  0.0000  0.0000  0.0000
    11DUM    Ar 3053   1.925   1.625   1.525  0.0000  0.0000  0.0000
    11DUM    Ar 3054   2.075   1.775   1.525  0.0000  0.0000  0.0000
    11DUM    Ar 3055   2.075   1.625   1.675  0.0000  0.0000  0.0000
    11DUM    Ar 3056   1.925   1.775   1.675  0.0000  0.0000  0.0000
    11DUM    Ar 3057   2.225   1.625   1.525  0.0000  0.0000  0.0000
    11DUM    Ar 3058   2.375   1.775   1.525  0.0000  0.0000  0.0000
    11DUM    Ar 3059   2.375   1.625   1.675  0.0000  0.0000  0.0000
    11DUM    Ar 3060   2.225   1.775   1.675  0.0000  0.0000  0.0000
    11DUM    Ar 3061   2.525   1.625   1.525  0.0000  0.0000  0.0000
    11DUM    Ar 3062   2.675   1.775   1.525  0.0000  0.0000  0.0000
    11DUM    Ar 3063   2.675   1.625   1.675  0.0000  0.0000  0.0000
    11DUM    Ar 3064   2.525   1.775   1.675  0.0000  0.0000  0.0000
    11DUM    Ar 3065   2.825   1.625   1.525  0.0000  0.0000  0.0000
    11DUM    Ar 3066   2.975   1.775   1.525  0.0000  0.0000  0.0000
    11DUM    Ar 3067   2.975   1.625   1.675  0.0000  0.0000  0.0000
    11DUM    Ar 3068   2.825   1.775   1.675  0.0000  0.0000  0.0000
    11DUM    Ar 3069   3.125   1.625   1.525  0.0000  0.0000  0.0000
    11DUM    Ar 3070   3.275   1.775   1.525  0.0000  0.0000  0.0000
    11DUM    Ar 3071   3.275   1.625   1.675  0.0000  0.0000  0.0000
    11DUM    Ar 3072   3.125   1.775   1.675  0.0000  0.0000  0.0000
    11DUM    Ar 3073   3.425   1.625   1.525  0.0000  0.0000  0.0000
    11DUM    Ar 3074   3.575   1.775   1.525  0.0000  0.0000  0.0000
    11DUM    Ar 3075   3.575   1.625   1.675  0.0000  0.0000  0.0000
    11DUM    Ar 3076   3.425   1.775   1.675  0.0000  0.0000  0.0000
    11DUM    Ar 3077   3.725   1.625   1.525  0.0000  0.0000  0.0000
    11DUM    Ar 3078   3.875   1.775   1.525  0.0000  0.0000  0.0000
    11DUM    Ar 3079   3.875   1.625   1.675  0.0000  0.0000  0.0000
    11DUM    Ar 3080   3.725   1.775   1.675  0.0000  0.0000  0.0000
    11DUM    Ar 3081   4.025   1.625   1.525  0.0000  0.0000  0.0000
    11DUM    Ar 3082   4.175   1.775   1.525  0.0000  0.0000  0.0000
    11DUM    Ar 3083   4.175   1.625   1.675  0.0000  0.0000  0.0000
    11DUM    Ar 3084   4.025   1.775   1.675  0.0000  0.0000  0.0000
    11DUM    Ar 3085  -0.175   1.925   1.525  0.0000  0.0000  0.0000
    11DUM    Ar 3086  -0.025   2.075   1.525  0.0000  0.0000  0.0000
    11DUM    Ar 3087  -0.025   1.925   1.675  0.0000  0.0000  0.0000
    11DUM    Ar 3088  -0.175   2.075   1.675  0.0000  0.0000  0.0000
    11DUM    Ar 3089   0.125   1.925   1.525  0.0000  0.0000  0.0000
    11DUM    Ar 3090   0.275   2.075   1.525  0.0000  0.0000  0.0000
    11DUM    Ar 3091   0.275   1.925   1.675  0.0000  0.0000  0.0000
    11DUM    Ar 3092   0.125   2.075   1.675  0.0000  0.0000  0.0000
    11DUM    Ar 3093   0.425   1.925   1.525  0.0000  0.0000  0.0000
    11DUM    Ar 3094   0.575   2.075   1.525  0.0000  0.0000  0.0000
    11DUM    Ar 3095   0.575   1.925   1.675  0.0000  0.0000  0.0000
    11DUM    Ar 3096   0.425   2.075   1.675  0.0000  0.0000  0.0000
    11DUM    Ar 3097   0.725   1.925   1.525  0.0000  0.0000  0.0000
    11DUM    Ar 3098   0.875   2.075   1.525  0.0000  0.0000  0.0000
    11DUM    Ar 3099   0.875   1.925   1.675  0.0000  0.0000  0.0000
    11DUM    Ar 3100   0.725   2.075   1.675  0.0000  0.0000  0.0000
    11DUM    Ar 3101   1.025   1.925   1.525  0.0000  0.0000  0.0000
    11DUM    Ar 3102   1.175   2.075   1.525  0.0000  0.0000  0.0000
    11DUM    Ar 3103   1.175   1.925   1.675  0.0000  0.0000  0.0000
    11DUM    Ar 3104   1.025   2.075   1.675  0.0000  0.0000  0.0000
    11DUM    Ar 3105   1.325   1.925   1.525  0.0000  0.0000  0.0000
    11DUM    Ar 3106   1.475   2.075   1.525  0.0000  0.0000  0.0000
    11DUM    Ar 3107   1.475   1.925   1.675  0.0000  0.0000  0.0000
    11DUM    Ar 3108   1.325   2.075   1.675  0.0000  0.0000  0.0000
    11DUM    Ar 3109   1.625   1.925   1.525  0.0000  0.0000  0.0000
    11DUM    Ar 3110   1.775   2.075   1.525  0.0000  0.0000  0.0000
    11DUM    Ar 3111   1.775   1.925   1.675  0.0000  0.0000  0.0000
    11DUM    Ar 3112   1.625   2.075   1.675  0.0000  0.0000  0.0000
    11DUM    Ar 3113   1.925   1.925   1.525  0.0000  0.0000  0.0000
    11DUM    Ar 3114   2.075   2.075   1.525  0.0000  0.0000  0.0000
    11DUM    Ar 3115   2.075   1.925   1.675  0.0000  0.0000  0.0000
    11DUM    Ar 3116   1.925   2.075   1.675  0.0000  0.0000  0.0000
    11DUM    Ar 3117   2.225   1.925   1.525  0.0000  0.0000  0.0000
    11DUM    Ar 3118   2.375   2.075   1.525  0.0000  0.0000  0.0000
    11DUM    Ar 3119   2.375   1.925   1.675  0.0000  0.0000  0.0000
    11DUM    Ar 3120   2.225   2.075   1.675  0.0000  0.0000  0.0000
    11DUM    Ar 3121   2.525   1.925   1.525  0.0000  0.0000  0.0000
    11DUM    Ar 3122   2.675   2.075   1.525  0.0000  0.0000  0.0000
    11DUM    Ar 3123   2.675   1.925   1.675  0.0000  0.0000  0.0000
    11DUM    Ar 3124   2.525   2.075   1.675  0.0000  0.0000  0.0000
    11DUM    Ar 3125   2.825   1.925   1.525  0.0000  0.0000  0.0000
    11DUM    Ar 3126   2.975   2.075   1.525  0.0000  0.0000  0.0000
    11DUM    Ar 3127   2.975   1.925   1.675  0.0000  0.0000  0.0000
    11DUM    Ar 3128   2.825   2.075   1.675  0.0000  0.0000  0.0000
    11DUM    Ar 3129   3.125   1.925   1.525  0.0000  0.0000  0.0000
    11DUM    Ar 3130   3.275   2.075   1.525  0.0000  0.0000  0.0000
    11DUM    Ar 3131   3.275   1.925   1.675  0.0000  0.0000  0.0000
    11DUM    Ar 3132   3.125   2.075   1.675  0.0000  0.0000  0.0000
    11DUM    Ar 3133   3.425   1.925   1.525  0.0000  0.0000  0.0000
    11DUM    Ar 3134   3.575   2.075   1.525  0.0000  0.0000  0.0000
    11DUM    Ar 3135   3.575   1.925   1.675  0.0000  0.0000  0.0000
    11DUM    Ar 3136   3.425   2.075   1.675  0.0000  0.0000  0.0000
    11DUM    Ar 3137   3.725   1.925   1.525  0.0000  0.0000  0.0000
    11DUM    Ar 3138   3.875   2.075   1.525  0.0000  0.0000  0.0000
    11DUM    Ar 3139   3.875   1.925   1.675  0.0000  0.0000  0.0000
    11DUM    Ar 3140   3.725   2.075   1.675  0.0000  0.0000  0.0000
    11DUM    Ar 3141   4.025   1.925   1.525  0.0000  0.0000  0.0000
    11DUM    Ar 3142   4.175   2.075   1.525  0.0000  0.0000  0.0000
    11DUM    Ar 3143   4.175   1.925   1.675  0.0000  0.0000  0.0000
    11DUM    Ar 3144   4.025   2.075   1.675  0.0000  0.0000  0.0000
    11DUM    Ar 3145  -0.175   2.225   1.525  0.0000  0.0000  0.0000
    11DUM    Ar 3146  -0.025   2.375   1.525  0.0000  0.0000  0.0000
    11DUM    Ar 3147  -0.025   2.225   1.675  0.0000  0.0000  0.0000
    11DUM    Ar 3148  -0.175   2.375   1.675  0.0000  0.0000  0.0000
    11DUM    Ar 3149   0.125   2.225   1.525  0.0000  0.0000  0.0000
    11DUM    Ar 3150   0.275   2.375   1.525  0.0000  0.0000  0.0000
    11DUM    Ar 3151   0.275   2.225   1.675  0.0000  0.0000  0.0000
    11DUM    Ar 3152   0.125   2.375   1.675  0.0000  0.0000  0.0000
    11DUM    Ar 3153   0.425   2.225   1.525  0.0000  0.0000  0.0000
    11DUM    Ar 3154   0.575   2.375   1.525  0.0000  0.0000  0.0000
    11DUM    Ar 3155   0.575   2.225   1.675  0.0000  0.0000  0.0000
    11DUM    Ar 3156   0.425   2.375   1.675  0.0000  0.0000  0.0000
    11DUM    Ar 3157   0.725   2.225   1.525  0.0000  0.0000  0.0000
    11DUM    Ar 3158   0.875   2.375   1.525  0.0000  0.0000  0.0000
    11DUM    Ar 3159   0.875   2.225   1.675  0.0000  0.0000  0.0000
    11DUM    Ar 3160   0.725   2.375   1.675  0.0000  0.0000  0.0000
    11DUM    Ar 3161   1.025   2.225   1.525  0.0000  0.0000  0.0000
    11DUM    Ar 3162   1.175   2.375   1.525  0.0000  0.0000  0.0000
    11DUM    Ar 3163   1.175   2.225   1.675  0.0000  0.0000  0.0000
    11DUM    Ar 3164   1.025   2.375   1.675  0.0000  0.0000  0.0000
    11DUM    Ar 3165   1.325   2.225   1.525  0.0000  0.0000  0.0000
    11DUM    Ar 3166   1.475   2.375   1.525  0.0000  0.0000  0.0000
    11DUM    Ar 3167   1.475   2.225   1.675  0.0000  0.0000  0.0000
    11DUM    Ar 3168   1.325   2.375   1.675  0.0000  0.0000  0.0000
    11DUM    Ar 3169   1.625   2.225   1.525  0.0000  0.0000  0.0000
    11DUM    Ar 3170   1.775   2.375   1.525  0.0000  0.0000  0.0000
    11DUM    Ar 3171   1.775   2.225   1.675  0.0000  0.0000  0.0000
    11DUM    Ar 3172   1.625   2.375   1.675  0.0000  0.0000  0.0000
    11DUM    Ar 3173   1.925   2.225   1.525  0.0000  0.0000  0.0000
    11DUM    Ar 3174   2.075   2.375   1.525  0.0000  0.0000  0.0000
    11DUM    Ar 3175   2.075   2.225   1.675  0.0000  0.0000  0.0000
    11DUM    Ar 3176   1.925   2.375   1.675  0.0000  0.0000  0.0000
    11DUM    Ar 3177   2.225   2.225   1.525  0.0000  0.0000  0.0000
    11DUM    Ar 3178   2.375   2.375   1.525  0.0000  0.0000  0.0000
    11DUM    Ar 3179   2.375   2.225   1.675  0.0000  0.0000  0.0000
    11DUM    Ar 3180   2.225   2.375   1.675  0.0000  0.0000  0.0000
    11DUM    Ar 3181   2.525   2.225   1.525  0.0000  0.0000  0.0000
    11DUM    Ar 3182   2.675   2.375   1.525  0.0000  0.0000  0.0000
    11DUM    Ar 3183   2.675   2.225   1.675  0.0000  0.0000  0.0000
    11DUM    Ar 3184   2.525   2.375   1.675  0.0000  0.0000  0.0000
    11DUM    Ar 3185   2.825   2.225   1.525  0.0000  0.0000  0.0000
    11DUM    Ar 3186   2.975   2.375   1.525  0.0000  0.0000  0.0000
    11DUM    Ar 3187   2.975   2.225   1.675  0.0000  0.0000  0.0000
    11DUM    Ar 3188   2.825   2.375   1.675  0.0000  0.0000  0.0000
    11DUM    Ar 3189   3.125   2.225   1.525  0.0000  0.0000  0.0000
    11DUM    Ar 3190   3.275   2.375   1.525  0.0000  0.0000  0.0000
    11DUM    Ar 3191   3.275   2.225   1.675  0.0000  0.0000  0.0000
    11DUM    Ar 3192   3.125   2.375   1.675  0.0000  0.0000  0.0000
    11DUM    Ar 3193   3.425   2.225   1.525  0.0000  0.0000  0.0000
    11DUM    Ar 3194   3.575   2.375   1.525  0.0000  0.0000  0.0000
    11DUM    Ar 3195   3.575   2.225   1.675  0.0000  0.0000  0.0000
    11DUM    Ar 3196   3.425   2.375   1.675  0.0000  0.0000  0.0000
    11DUM    Ar 3197   3.725   2.225   1.525  0.0000  0.0000  0.0000
    11DUM    Ar 3198   3.875   2.375   1.525  0.0000  0.0000  0.0000
    11DUM    Ar 3199   3.875   2.225   1.675  0.0000  0.0000  0.0000
    11DUM    Ar 3200   3.725   2.375   1.675  0.0000  0.0000  0.0000
    11DUM    Ar 3201   4.025   2.225   1.525  0.0000  0.0000  0.0000
    11DUM    Ar 3202   4.175   2.375   1.525  0.0000  0.0000  0.0000
    11DUM    Ar 3203   4.175   2.225   1.675  0.0000  0.0000  0.0000
    11DUM    Ar 3204   4.025   2.375   1.675  0.0000  0.0000  0.0000
    11DUM    Ar 3205  -0.175   2.525   1.525  0.0000  0.0000  0.0000
    11DUM    Ar 3206  -0.025   2.675   1.525  0.0000  0.0000  0.0000
    11DUM    Ar 3207  -0.025   2.525   1.675  0.0000  0.0000  0.0000
    11DUM    Ar 3208  -0.175   2.675   1.675  0.0000  0.0000  0.0000
    11DUM    Ar 3209   0.125   2.525   1.525  0.0000  0.0000  0.0000
    11DUM    Ar 3210   0.275   2.675   1.525  0.0000  0.0000  0.0000
    11DUM    Ar 3211   0.275   2.525   1.675  0.0000  0.0000  0.0000
    11DUM    Ar 3212   0.125   2.675   1.675  0.0000  0.0000  0.0000
    11DUM    Ar 3213   0.425   2.525   1.525  0.0000  0.0000  0.0000
    11DUM    Ar 3214   0.575   2.525   1.675  0.0000  0.0000  0.0000
    11DUM    Ar 3215   0.425   2.675   1.675  0.0000  0.0000  0.0000
    11DUM    Ar 3216   1.475   2.525   1.675  0.0000  0.0000  0.0000
    11DUM    Ar 3217   1.625   2.525   1.525  0.0000  0.0000  0.0000
    11DUM    Ar 3218   1.775   2.675   1.525  0.0000  0.0000  0.0000
    11DUM    Ar 3219   1.775   2.525   1.675  0.0000  0.0000  0.0000
    11DUM    Ar 3220   1.625   2.675   1.675  0.0000  0.0000  0.0000
    11DUM    Ar 3221   1.925   2.525   1.525  0.0000  0.0000  0.0000
    11DUM    Ar 3222   2.075   2.675   1.525  0.0000  0.0000  0.0000
    11DUM    Ar 3223   2.075   2.525   1.675  0.0000  0.0000  0.0000
    11DUM    Ar 3224   1.925   2.675   1.675  0.0000  0.0000  0.0000
    11DUM    Ar 3225   2.225   2.525   1.525  0.0000  0.0000  0.0000
    11DUM    Ar 3226   2.375   2.675   1.525  0.0000  0.0000  0.0000
    11DUM    Ar 3227   2.375   2.525   1.675  0.0000  0.0000  0.0000
    11DUM    Ar 3228   2.225   2.675   1.675  0.0000  0.0000  0.0000
    11DUM    Ar 3229   2.525   2.525   1.525  0.0000  0.0000  0.0000
    11DUM    Ar 3230   3.425   2.525   1.525  0.0000  0.0000  0.0000
    11DUM    Ar 3231   3.575   2.675   1.525  0.0000  0.0000  0.0000
    11DUM    Ar 3232   3.575   2.525   1.675  0.0000  0.0000  0.0000
    11DUM    Ar 3233   3.725   2.525   1.525  0.0000  0.0000  0.0000
    11DUM    Ar 3234   3.875   2.675   1.525  0.0000  0.0000  0.0000
    11DUM    Ar 3235   3.875   2.525   1.675  0.0000  0.0000  0.0000
    11DUM    Ar 3236   3.725   2.675   1.675  0.0000  0.0000  0.0000
    11DUM    Ar 3237   4.025   2.525   1.525  0.0000  0.0000  0.0000
    11DUM    Ar 3238   4.175   2.675   1.525  0.0000  0.0000  0.0000
    11DUM    Ar 3239   4.175   2.525   1.675  0.0000  0.0000  0.0000
    11DUM    Ar 3240   4.025   2.675   1.675  0.0000  0.0000  0.0000
    11DUM    Ar 3241  -0.175   2.825   1.525  0.0000  0.0000  0.0000
    11DUM    Ar 3242  -0.025   2.975   1.525  0.0000  0.0000  0.0000
    11DUM    Ar 3243  -0.025   2.825   1.675  0.0000  0.0000  0.0000
    11DUM    Ar 3244  -0.175   2.975   1.675  0.0000  0.0000  0.0000
    11DUM    Ar 3245   0.125   2.825   1.525  0.0000  0.0000  0.0000
    11DUM    Ar 3246   0.275   2.975   1.525  0.0000  0.0000  0.0000
    11DUM    Ar 3247   0.275   2.825   1.675  0.0000  0.0000  0.0000
    11DUM    Ar 3248   0.125   2.975   1.675  0.0000  0.0000  0.0000
    11DUM    Ar 3249   1.625   2.825   1.525  0.0000  0.0000  0.0000
    11DUM    Ar 3250   1.775   2.975   1.525  0.0000  0.0000  0.0000
    11DUM    Ar 3251   1.775   2.825   1.675  0.0000  0.0000  0.0000
    11DUM    Ar 3252   1.625   2.975   1.675  0.0000  0.0000  0.0000
    11DUM    Ar 3253   1.925   2.825   1.525  0.0000  0.0000  0.0000
    11DUM    Ar 3254   2.075   2.975   1.525  0.0000  0.0000  0.0000
    11DUM    Ar 3255   2.075   2.825   1.675  0.0000  0.0000  0.0000
    11DUM    Ar 3256   1.925   2.975   1.675  0.0000  0.0000  0.0000
    11DUM    Ar 3257   2.225   2.825   1.525  0.0000  0.0000  0.0000
    11DUM    Ar 3258   2.375   2.975   1.525  0.0000  0.0000  0.0000
    11DUM    Ar 3259   2.375   2.825   1.675  0.0000  0.0000  0.0000
    11DUM    Ar 3260   2.225   2.975   1.675  0.0000  0.0000  0.0000
    11DUM    Ar 3261   3.725   2.825   1.525  0.0000  0.0000  0.0000
    11DUM    Ar 3262   3.875   2.975   1.525  0.0000  0.0000  0.0000
    11DUM    Ar 3263   3.875   2.825   1.675  0.0000  0.0000  0.0000
    11DUM    Ar 3264   3.725   2.975   1.675  0.0000  0.0000  0.0000
    11DUM    Ar 3265   4.025   2.825   1.525  0.0000  0.0000  0.0000
    11DUM    Ar 3266   4.175   2.975   1.525  0.0000  0.0000  0.0000
    11DUM    Ar 3267   4.175   2.825   1.675  0.0000  0.0000  0.0000
    11DUM    Ar 3268   4.025   2.975   1.675  0.0000  0.0000  0.0000
    11DUM    Ar 3269  -0.175   3.125   1.525  0.0000  0.0000  0.0000
    11DUM    Ar 3270  -0.025   3.275   1.525  0.0000  0.0000  0.0000
    11DUM    Ar 3271  -0.025   3.125   1.675  0.0000  0.0000  0.0000
    11DUM    Ar 3272  -0.175   3.275   1.675  0.0000  0.0000  0.0000
    11DUM    Ar 3273   0.125   3.125   1.525  0.0000  0.0000  0.0000
    11DUM    Ar 3274   0.275   3.275   1.525  0.0000  0.0000  0.0000
    11DUM    Ar 3275   0.275   3.125   1.675  0.0000  0.0000  0.0000
    11DUM    Ar 3276   0.125   3.275   1.675  0.0000  0.0000  0.0000
    11DUM    Ar 3277   0.425   3.275   1.675  0.0000  0.0000  0.0000
    11DUM    Ar 3278   1.625   3.125   1.525  0.0000  0.0000  0.0000
    11DUM    Ar 3279   1.775   3.275   1.525  0.0000  0.0000  0.0000
    11DUM    Ar 3280   1.775   3.125   1.675  0.0000  0.0000  0.0000
    11DUM    Ar 3281   1.625   3.275   1.675  0.0000  0.0000  0.0000
    11DUM    Ar 3282   1.925   3.125   1.525  0.0000  0.0000  0.0000
    11DUM    Ar 3283   2.075   3.275   1.525  0.0000  0.0000  0.0000
    11DUM    Ar 3284   2.075   3.125   1.675  0.0000  0.0000  0.0000
    11DUM    Ar 3285   1.925   3.275   1.675  0.0000  0.0000  0.0000
    11DUM    Ar 3286   2.225   3.125   1.525  0.0000  0.0000  0.0000
    11DUM    Ar 3287   2.375   3.275   1.525  0.0000  0.0000  0.0000
    11DUM    Ar 3288   2.375   3.125   1.675  0.0000  0.0000  0.0000
    11DUM    Ar 3289   2.225   3.275   1.675  0.0000  0.0000  0.0000
    11DUM    Ar 3290   3.575   3.275   1.525  0.0000  0.0000  0.0000
    11DUM    Ar 3291   3.725   3.125   1.525  0.0000  0.0000  0.0000
    11DUM    Ar 3292   3.875   3.275   1.525  0.0000  0.0000  0.0000
    11DUM    Ar 3293   3.875   3.125   1.675  0.0000  0.0000  0.0000
    11DUM    Ar 3294   3.725   3.275   1.675  0.0000  0.0000  0.0000
    11DUM    Ar 3295   4.025   3.125   1.525  0.0000  0.0000  0.0000
    11DUM    Ar 3296   4.175   3.275   1.525  0.0000  0.0000  0.0000
    11DUM    Ar 3297   4.175   3.125   1.675  0.0000  0.0000  0.0000
    11DUM    Ar 3298   4.025   3.275   1.675  0.0000  0.0000  0.0000
    11DUM    Ar 3299  -0.175   3.425   1.525  0.0000  0.0000  0.0000
    11DUM    Ar 3300  -0.025   3.575   1.525  0.0000  0.0000  0.0000
    11DUM    Ar 3301  -0.025   3.425   1.675  0.0000  0.0000  0.0000
    11DUM    Ar 3302  -0.175   3.575   1.675  0.0000  0.0000  0.0000
    11DUM    Ar 3303   0.125   3.425   1.525  0.0000  0.0000  0.0000
    11DUM    Ar 3304   0.275   3.575   1.525  0.0000  0.0000  0.0000
    11DUM    Ar 3305   0.275   3.425   1.675  0.0000  0.0000  0.0000
    11DUM    Ar 3306   0.125   3.575   1.675  0.0000  0.0000  0.0000
    11DUM    Ar 3307   0.425   3.425   1.525  0.0000  0.0000  0.0000
    11DUM    Ar 3308   0.575   3.575   1.525  0.0000  0.0000  0.0000
    11DUM    Ar 3309   0.425   3.575   1.675  0.0000  0.0000  0.0000
    11DUM    Ar 3310   0.725   3.575   1.675  0.0000  0.0000  0.0000
    11DUM    Ar 3311   1.475   3.575   1.525  0.0000  0.0000  0.0000
    11DUM    Ar 3312   1.475   3.425   1.675  0.0000  0.0000  0.0000
    11DUM    Ar 3313   1.325   3.575   1.675  0.0000  0.0000  0.0000
    11DUM    Ar 3314   1.625   3.425   1.525  0.0000  0.0000  0.0000
    11DUM    Ar 3315   1.775   3.575   1.525  0.0000  0.0000  0.0000
    11DUM    Ar 3316   1.775   3.425   1.675  0.0000  0.0000  0.0000
    11DUM    Ar 3317   1.625   3.575   1.675  0.0000  0.0000  0.0000
    11DUM    Ar 3318   1.925   3.425   1.525  0.0000  0.0000  0.0000
    11DUM    Ar 3319   2.075   3.575   1.525  0.0000  0.0000  0.0000
    11DUM    Ar 3320   2.075   3.425   1.675  0.0000  0.0000  0.0000
    11DUM    Ar 3321   1.925   3.575   1.675  0.0000  0.0000  0.0000
    11DUM    Ar 3322   2.225   3.425   1.525  0.0000  0.0000  0.0000
    11DUM    Ar 3323   2.375   3.575   1.525  0.0000  0.0000  0.0000
    11DUM    Ar 3324   2.375   3.425   1.675  0.0000  0.0000  0.0000
    11DUM    Ar 3325   2.225   3.575   1.675  0.0000  0.0000  0.0000
    11DUM    Ar 3326   2.525   3.425   1.525  0.0000  0.0000  0.0000
    11DUM    Ar 3327   2.675   3.575   1.525  0.0000  0.0000  0.0000
    11DUM    Ar 3328   2.525   3.575   1.675  0.0000  0.0000  0.0000
    11DUM    Ar 3329   3.275   3.575   1.525  0.0000  0.0000  0.0000
    11DUM    Ar 3330   3.575   3.575   1.525  0.0000  0.0000  0.0000
    11DUM    Ar 3331   3.575   3.425   1.675  0.0000  0.0000  0.0000
    11DUM    Ar 3332   3.425   3.575   1.675  0.0000  0.0000  0.0000
    11DUM    Ar 3333   3.725   3.425   1.525  0.0000  0.0000  0.0000
    11DUM    Ar 3334   3.875   3.575   1.525  0.0000  0.0000  0.0000
    11DUM    Ar 3335   3.875   3.425   1.675  0.0000  0.0000  0.0000
    11DUM    Ar 3336   3.725   3.575   1.675  0.0000  0.0000  0.0000
    11DUM    Ar 3337   4.025   3.425   1.525  0.0000  0.0000  0.0000
    11DUM    Ar 3338   4.175   3.575   1.525  0.0000  0.0000  0.0000
    11DUM    Ar 3339   4.175   3.425   1.675  0.0000  0.0000  0.0000
    11DUM    Ar 3340   4.025   3.575   1.675  0.0000  0.0000  0.0000
    11DUM    Ar 3341  -0.175   3.725   1.525  0.0000  0.0000  0.0000
    11DUM    Ar 3342  -0.025   3.875   1.525  0.0000  0.0000  0.0000
    11DUM    Ar 3343  -0.025   3.725   1.675  0.0000  0.0000  0.0000
    11DUM    Ar 3344  -0.175   3.875   1.675  0.0000  0.0000  0.0000
    11DUM    Ar 3345   0.125   3.725   1.525  0.0000  0.0000  0.0000
    11DUM    Ar 3346   0.275   3.875   1.525  0.0000  0.0000  0.0000
    11DUM    Ar 3347   0.275   3.725   1.675  0.0000  0.0000  0.0000
    11DUM    Ar 3348   0.125   3.875   1.675  0.0000  0.0000  0.0000
    11DUM    Ar 3349   0.425   3.725   1.525  0.0000  0.0000  0.0000
    11DUM    Ar 3350   0.575   3.875   1.525  0.0000  0.0000  0.0000
    11DUM    Ar 3351   0.575   3.725   1.675  0.0000  0.0000  0.0000
    11DUM    Ar 3352   0.425   3.875   1.675  0.0000  0.0000  0.0000
    11DUM    Ar 3353   0.725   3.725   1.525  0.0000  0.0000  0.0000
    11DUM    Ar 3354   0.875   3.875   1.525  0.0000  0.0000  0.0000
    11DUM    Ar 3355   0.875   3.725   1.675  0.0000  0.0000  0.0000
    11DUM    Ar 3356   0.725   3.875   1.675  0.0000  0.0000  0.0000
    11DUM    Ar 3357   1.025   3.725   1.525  0.0000  0.0000  0.0000
    11DUM    Ar 3358   1.175   3.875   1.525  0.0000  0.0000  0.0000
    11DUM    Ar 3359   1.175   3.725   1.675  0.0000  0.0000  0.0000
    11DUM    Ar 3360   1.025   3.875   1.675  0.0000  0.0000  0.0000
    11DUM    Ar 3361   1.325   3.725   1.525  0.0000  0.0000  0.0000
    11DUM    Ar 3362   1.475   3.875   1.525  0.0000  0.0000  0.0000
    11DUM    Ar 3363   1.475   3.725   1.675  0.0000  0.0000  0.0000
    11DUM    Ar 3364   1.325   3.875   1.675  0.0000  0.0000  0.0000
    11DUM    Ar 3365   1.625   3.725   1.525  0.0000  0.0000  0.0000
    11DUM    Ar 3366   1.775   3.875   1.525  0.0000  0.0000  0.0000
    11DUM    Ar 3367   1.775   3.725   1.675  0.0000  0.0000  0.0000
    11DUM    Ar 3368   1.625   3.875   1.675  0.0000  0.0000  0.0000
    11DUM    Ar 3369   1.925   3.725   1.525  0.0000  0.0000  0.0000
    11DUM    Ar 3370   2.075   3.875   1.525  0.0000  0.0000  0.0000
    11DUM    Ar 3371   2.075   3.725   1.675  0.0000  0.0000  0.0000
    11DUM    Ar 3372   1.925   3.875   1.675  0.0000  0.0000  0.0000
    11DUM    Ar 3373   2.225   3.725   1.525  0.0000  0.0000  0.0000
    11DUM    Ar 3374   2.375   3.875   1.525  0.0000  0.0000  0.0000
    11DUM    Ar 3375   2.375   3.725   1.675  0.0000  0.0000  0.0000
    11DUM    Ar 3376   2.225   3.875   1.675  0.0000  0.0000  0.0000
    11DUM    Ar 3377   2.525   3.725   1.525  0.0000  0.0000  0.0000
    11DUM    Ar 3378   2.675   3.875   1.525  0.0000  0.0000  0.0000
    11DUM    Ar 3379   2.675   3.725   1.675  0.0000  0.0000  0.0000
    11DUM    Ar 3380   2.525   3.875   1.675  0.0000  0.0000  0.0000
    11DUM    Ar 3381   2.825   3.725   1.525  0.0000  0.0000  0.0000
    11DUM    Ar 3382   2.975   3.875   1.525  0.0000  0.0000  0.0000
    11DUM    Ar 3383   2.975   3.725   1.675  0.0000  0.0000  0.0000
    11DUM    Ar 3384   2.825   3.875   1.675  0.0000  0.0000  0.0000
    11DUM    Ar 3385   3.125   3.725   1.525  0.0000  0.0000  0.0000
    11DUM    Ar 3386   3.275   3.875   1.525  0.0000  0.0000  0.0000
    11DUM    Ar 3387   3.275   3.725   1.675  0.0000  0.0000  0.0000
    11DUM    Ar 3388   3.125   3.875   1.675  0.0000  0.0000  0.0000
    11DUM    Ar 3389   3.425   3.725   1.525  0.0000  0.0000  0.0000
    11DUM    Ar 3390   3.575   3.875   1.525  0.0000  0.0000  0.0000
    11DUM    Ar 3391   3.575   3.725   1.675  0.0000  0.0000  0.0000
    11DUM    Ar 3392   3.425   3.875   1.675  0.0000  0.0000  0.0000
    11DUM    Ar 3393   3.725   3.725   1.525  0.0000  0.0000  0.0000
    11DUM    Ar 3394   3.875   3.875   1.525  0.0000  0.0000  0.0000
    11DUM    Ar 3395   3.875   3.725   1.675  0.0000  0.0000  0.0000
    11DUM    Ar 3396   3.725   3.875   1.675  0.0000  0.0000  0.0000
    11DUM    Ar 3397   4.025   3.725   1.525  0.0000  0.0000  0.0000
    11DUM    Ar 3398   4.175   3.875   1.525  0.0000  0.0000  0.0000
    11DUM    Ar 3399   4.175   3.725   1.675  0.0000  0.0000  0.0000
    11DUM    Ar 3400   4.025   3.875   1.675  0.0000  0.0000  0.0000
    11DUM    Ar 3401  -0.175   4.025   1.525  0.0000  0.0000  0.0000
    11DUM    Ar 3402  -0.025   4.175   1.525  0.0000  0.0000  0.0000
    11DUM    Ar 3403  -0.025   4.025   1.675  0.0000  0.0000  0.0000
    11DUM    Ar 3404  -0.175   4.175   1.675  0.0000  0.0000  0.0000
    11DUM    Ar 3405   0.125   4.025   1.525  0.0000  0.0000  0.0000
    11DUM    Ar 3406   0.275   4.175   1.525  0.0000  0.0000  0.0000
    11DUM    Ar 3407   0.275   4.025   1.675  0.0000  0.0000  0.0000
    11DUM    Ar 3408   0.125   4.175   1.675  0.0000  0.0000  0.0000
    11DUM    Ar 3409   0.425   4.025   1.525  0.0000  0.0000  0.0000
    11DUM    Ar 3410   0.575   4.175   1.525  0.0000  0.0000  0.0000
    11DUM    Ar 3411   0.575   4.025   1.675  0.0000  0.0000  0.0000
    11DUM    Ar 3412   0.425   4.175   1.675  0.0000  0.0000  0.0000
    11DUM    Ar 3413   0.725   4.025   1.525  0.0000  0.0000  0.0000
    11DUM    Ar 3414   0.875   4.175   1.525  0.0000  0.0000  0.0000
    11DUM    Ar 3415   0.875   4.025   1.675  0.0000  0.0000  0.0000
    11DUM    Ar 3416   0.725   4.175   1.675  0.0000  0.0000  0.0000
    11DUM    Ar 3417   1.025   4.025   1.525  0.0000  0.0000  0.0000
    11DUM    Ar 3418   1.175   4.175   1.525  0.0000  0.0000  0.0000
    11DUM    Ar 3419   1.175   4.025   1.675  0.0000  0.0000  0.0000
    11DUM    Ar 3420   1.025   4.175   1.675  0.0000  0.0000  0.0000
    11DUM    Ar 3421   1.325   4.025   1.525  0.0000  0.0000  0.0000
    11DUM    Ar 3422   1.475   4.175   1.525  0.0000  0.0000  0.0000
    11DUM    Ar 3423   1.475   4.025   1.675  0.0000  0.0000  0.0000
    11DUM    Ar 3424   1.325   4.175   1.675  0.0000  0.0000  0.0000
    11DUM    Ar 3425   1.625   4.025   1.525  0.0000  0.0000  0.0000
    11DUM    Ar 3426   1.775   4.175   1.525  0.0000  0.0000  0.0000
    11DUM    Ar 3427   1.775   4.025   1.675  0.0000  0.0000  0.0000
    11DUM    Ar 3428   1.625   4.175   1.675  0.0000  0.0000  0.0000
    11DUM    Ar 3429   1.925   4.025   1.525  0.0000  0.0000  0.0000
    11DUM    Ar 3430   2.075   4.175   1.525  0.0000  0.0000  0.0000
    11DUM    Ar 3431   2.075   4.025   1.675  0.0000  0.0000  0.0000
    11DUM    Ar 3432   1.925   4.175   1.675  0.0000  0.0000  0.0000
    11DUM    Ar 3433   2.225   4.025   1.525  0.0000  0.0000  0.0000
    11DUM    Ar 3434   2.375   4.175   1.525  0.0000  0.0000  0.0000
    11DUM    Ar 3435   2.375   4.025   1.675  0.0000  0.0000  0.0000
    11DUM    Ar 3436   2.225   4.175   1.675  0.0000  0.0000  0.0000
    11DUM    Ar 3437   2.525   4.025   1.525  0.0000  0.0000  0.0000
    11DUM    Ar 3438   2.675   4.175   1.525  0.0000  0.0000  0.0000
    11DUM    Ar 3439   2.675   4.025   1.675  0.0000  0.0000  0.0000
    11DUM    Ar 3440   2.525   4.175   1.675  0.0000  0.0000  0.0000
    11DUM    Ar 3441   2.825   4.025   1.525  0.0000  0.0000  0.0000
    11DUM    Ar 3442   2.975   4.175   1.525  0.0000  0.0000  0.0000
    11DUM    Ar 3443   2.975   4.025   1.675  0.0000  0.0000  0.0000
    11DUM    Ar 3444   2.825   4.175   1.675  0.0000  0.0000  0.0000
    11DUM    Ar 3445   3.125   4.025   1.525  0.0000  0.0000  0.0000
    11DUM    Ar 3446   3.275   4.175   1.525  0.0000  0.0000  0.0000
    11DUM    Ar 3447   3.275   4.025   1.675  0.0000  0.0000  0.0000
    11DUM    Ar 3448   3.125   4.175   1.675  0.0000  0.0000  0.0000
    11DUM    Ar 3449   3.425   4.025   1.525  0.0000  0.0000  0.0000
    11DUM    Ar 3450   3.575   4.175   1.525  0.0000  0.0000  0.0000
    11DUM    Ar 3451   3.575   4.025   1.675  0.0000  0.0000  0.0000
    11DUM    Ar 3452   3.425   4.175   1.675  0.0000  0.0000  0.0000
    11DUM    Ar 3453   3.725   4.025   1.525  0.0000  0.0000  0.0000
    11DUM    Ar 3454   3.875   4.175   1.525  0.0000  0.0000  0.0000
    11DUM    Ar 3455   3.875   4.025   1.675  0.0000  0.0000  0.0000
    11DUM    Ar 3456   3.725   4.175   1.675  0.0000  0.0000  0.0000
    11DUM    Ar 3457   4.025   4.025   1.525  0.0000  0.0000  0.0000
    11DUM    Ar 3458   4.175   4.175   1.525  0.0000  0.0000  0.0000
    11DUM    Ar 3459   4.175   4.025   1.675  0.0000  0.0000  0.0000
    11DUM    Ar 3460   4.025   4.175   1.675  0.0000  0.0000  0.0000
    11DUM    Ar 3461  -0.175  -0.175   1.825  0.0000  0.0000  0.0000
    11DUM    Ar 3462  -0.025  -0.025   1.825  0.0000  0.0000  0.0000
    11DUM    Ar 3463  -0.025  -0.175   1.975  0.0000  0.0000  0.0000
    11DUM    Ar 3464  -0.175  -0.025   1.975  0.0000  0.0000  0.0000
    11DUM    Ar 3465   0.125  -0.175   1.825  0.0000  0.0000  0.0000
    11DUM    Ar 3466   0.275  -0.025   1.825  0.0000  0.0000  0.0000
    11DUM    Ar 3467   0.275  -0.175   1.975  0.0000  0.0000  0.0000
    11DUM    Ar 3468   0.125  -0.025   1.975  0.0000  0.0000  0.0000
    11DUM    Ar 3469   0.425  -0.175   1.825  0.0000  0.0000  0.0000
    11DUM    Ar 3470   0.575  -0.025   1.825  0.0000  0.0000  0.0000
    11DUM    Ar 3471   0.575  -0.175   1.975  0.0000  0.0000  0.0000
    11DUM    Ar 3472   0.425  -0.025   1.975  0.0000  0.0000  0.0000
    11DUM    Ar 3473   0.725  -0.175   1.825  0.0000  0.0000  0.0000
    11DUM    Ar 3474   0.875  -0.025   1.825  0.0000  0.0000  0.0000
    11DUM    Ar 3475   0.875  -0.175   1.975  0.0000  0.0000  0.0000
    11DUM    Ar 3476   0.725  -0.025   1.975  0.0000  0.0000  0.0000
    11DUM    Ar 3477   1.025  -0.175   1.825  0.0000  0.0000  0.0000
    11DUM    Ar 3478   1.175  -0.025   1.825  0.0000  0.0000  0.0000
    11DUM    Ar 3479   1.175  -0.175   1.975  0.0000  0.0000  0.0000
    11DUM    Ar 3480   1.025  -0.025   1.975  0.0000  0.0000  0.0000
    11DUM    Ar 3481   1.325  -0.175   1.825  0.0000  0.0000  0.0000
    11DUM    Ar 3482   1.475  -0.025   1.825  0.0000  0.0000  0.0000
    11DUM    Ar 3483   1.475  -0.175   1.975  0.0000  0.0000  0.0000
    11DUM    Ar 3484   1.325  -0.025   1.975  0.0000  0.0000  0.0000
    11DUM    Ar 3485   1.625  -0.175   1.825  0.0000  0.0000  0.0000
    11DUM    Ar 3486   1.775  -0.025   1.825  0.0000  0.0000  0.0000
    11DUM    Ar 3487   1.775  -0.175   1.975  0.0000  0.0000  0.0000
    11DUM    Ar 3488   1.625  -0.025   1.975  0.0000  0.0000  0.0000
    11DUM    Ar 3489   1.925  -0.175   1.825  0.0000  0.0000  0.0000
    11DUM    Ar 3490   2.075  -0.025   1.825  0.0000  0.0000  0.0000
    11DUM    Ar 3491   2.075  -0.175   1.975  0.0000  0.0000  0.0000
    11DUM    Ar 3492   1.925  -0.025   1.975  0.0000  0.0000  0.0000
    11DUM    Ar 3493   2.225  -0.175   1.825  0.0000  0.0000  0.0000
    11DUM    Ar 3494   2.375  -0.025   1.825  0.0000  0.0000  0.0000
    11DUM    Ar 3495   2.375  -0.175   1.975  0.0000  0.0000  0.0000
    11DUM    Ar 3496   2.225  -0.025   1.975  0.0000  0.0000  0.0000
    11DUM    Ar 3497   2.525  -0.175   1.825  0.0000  0.0000  0.0000
    11DUM    Ar 3498   2.675  -0.025   1.825  0.0000  0.0000  0.0000
    11DUM    Ar 3499   2.675  -0.175   1.975  0.0000  0.0000  0.0000
    11DUM    Ar 3500   2.525  -0.025   1.975  0.0000  0.0000  0.0000
    11DUM    Ar 3501   2.825  -0.175   1.825  0.0000  0.0000  0.0000
    11DUM    Ar 3502   2.975  -0.025   1.825  0.0000  0.0000  0.0000
    11DUM    Ar 3503   2.975  -0.175   1.975  0.0000  0.0000  0.0000
    11DUM    Ar 3504   2.825  -0.025   1.975  0.0000  0.0000  0.0000
    11DUM    Ar 3505   3.125  -0.175   1.825  0.0000  0.0000  0.0000
    11DUM    Ar 3506   3.275  -0.025   1.825  0.0000  0.0000  0.0000
    11DUM    Ar 3507   3.275  -0.175   1.975  0.0000  0.0000  0.0000
    11DUM    Ar 3508   3.125  -0.025   1.975  0.0000  0.0000  0.0000
    11DUM    Ar 3509   3.425  -0.175   1.825  0.0000  0.0000  0.0000
    11DUM    Ar 3510   3.575  -0.025   1.825  0.0000  0.0000  0.0000
    11DUM    Ar 3511   3.575  -0.175   1.975  0.0000  0.0000  0.0000
    11DUM    Ar 3512   3.425  -0.025   1.975  0.0000  0.0000  0.0000
    11DUM    Ar 3513   3.725  -0.175   1.825  0.0000  0.0000  0.0000
    11DUM    Ar 3514   3.875  -0.025   1.825  0.0000  0.0000  0.0000
    11DUM    Ar 3515   3.875  -0.175   1.975  0.0000  0.0000  0.0000
    11DUM    Ar 3516   3.725  -0.025   1.975  0.0000  0.0000  0.0000
    11DUM    Ar 3517   4.025  -0.175   1.825  0.0000  0.0000  0.0000
    11DUM    Ar 3518   4.175  -0.025   1.825  0.0000  0.0000  0.0000
    11DUM    Ar 3519   4.175  -0.175   1.975  0.0000  0.0000  0.0000
    11DUM    Ar 3520   4.025  -0.025   1.975  0.0000  0.0000  0.0000
    11DUM    Ar 3521  -0.175   0.125   1.825  0.0000  0.0000  0.0000
    11DUM    Ar 3522  -0.025   0.275   1.825  0.0000  0.0000  0.0000
    11DUM    Ar 3523  -0.025   0.125   1.975  0.0000  0.0000  0.0000
    11DUM    Ar 3524  -0.175   0.275   1.975  0.0000  0.0000  0.0000
    11DUM    Ar 3525   0.125   0.125   1.825  0.0000  0.0000  0.0000
    11DUM    Ar 3526   0.275   0.275   1.825  0.0000  0.0000  0.0000
    11DUM    Ar 3527   0.275   0.125   1.975  0.0000  0.0000  0.0000
    11DUM    Ar 3528   0.125   0.275   1.975  0.0000  0.0000  0.0000
    11DUM    Ar 3529   0.425   0.125   1.825  0.0000  0.0000  0.0000
    11DUM    Ar 3530   0.575   0.275   1.825  0.0000  0.0000  0.0000
    11DUM    Ar 3531   0.575   0.125   1.975  0.0000  0.0000  0.0000
    11DUM    Ar 3532   0.425   0.275   1.975  0.0000  0.0000  0.0000
    11DUM    Ar 3533   0.725   0.125   1.825  0.0000  0.0000  0.0000
    11DUM    Ar 3534   0.875   0.275   1.825  0.0000  0.0000  0.0000
    11DUM    Ar 3535   0.875   0.125   1.975  0.0000  0.0000  0.0000
    11DUM    Ar 3536   0.725   0.275   1.975  0.0000  0.0000  0.0000
    11DUM    Ar 3537   1.025   0.125   1.825  0.0000  0.0000  0.0000
    11DUM    Ar 3538   1.175   0.275   1.825  0.0000  0.0000  0.0000
    11DUM    Ar 3539   1.175   0.125   1.975  0.0000  0.0000  0.0000
    11DUM    Ar 3540   1.025   0.275   1.975  0.0000  0.0000  0.0000
    11DUM    Ar 3541   1.325   0.125   1.825  0.0000  0.0000  0.0000
    11DUM    Ar 3542   1.475   0.275   1.825  0.0000  0.0000  0.0000
    11DUM    Ar 3543   1.475   0.125   1.975  0.0000  0.0000  0.0000
    11DUM    Ar 3544   1.325   0.275   1.975  0.0000  0.0000  0.0000
    11DUM    Ar 3545   1.625   0.125   1.825  0.0000  0.0000  0.0000
    11DUM    Ar 3546   1.775   0.275   1.825  0.0000  0.0000  0.0000
    11DUM    Ar 3547   1.775   0.125   1.975  0.0000  0.0000  0.0000
    11DUM    Ar 3548   1.625   0.275   1.975  0.0000  0.0000  0.0000
    11DUM    Ar 3549   1.925   0.125   1.825  0.0000  0.0000  0.0000
    11DUM    Ar 3550   2.075   0.275   1.825  0.0000  0.0000  0.0000
    11DUM    Ar 3551   2.075   0.125   1.975  0.0000  0.0000  0.0000
    11DUM    Ar 3552   1.925   0.275   1.975  0.0000  0.0000  0.0000
    11DUM    Ar 3553   2.225   0.125   1.825  0.0000  0.0000  0.0000
    11DUM    Ar 3554   2.375   0.275   1.825  0.0000  0.0000  0.0000
    11DUM    Ar 3555   2.375   0.125   1.975  0.0000  0.0000  0.0000
    11DUM    Ar 3556   2.225   0.275   1.975  0.0000  0.0000  0.0000
    11DUM    Ar 3557   2.525   0.125   1.825  0.0000  0.0000  0.0000
    11DUM    Ar 3558   2.675   0.275   1.825  0.0000  0.0000  0.0000
    11DUM    Ar 3559   2.675   0.125   1.975  0.0000  0.0000  0.0000
    11DUM    Ar 3560   2.525   0.275   1.975  0.0000  0.0000  0.0000
    11DUM    Ar 3561   2.825   0.125   1.825  0.0000  0.0000  0.0000
    11DUM    Ar 3562   2.975   0.275   1.825  0.0000  0.0000  0.0000
    11DUM    Ar 3563   2.975   0.125   1.975  0.0000  0.0000  0.0000
    11DUM    Ar 3564   2.825   0.275   1.975  0.0000  0.0000  0.0000
    11DUM    Ar 3565   3.125   0.125   1.825  0.0000  0.0000  0.0000
    11DUM    Ar 3566   3.275   0.275   1.825  0.0000  0.0000  0.0000
    11DUM    Ar 3567   3.275   0.125   1.975  0.0000  0.0000  0.0000
    11DUM    Ar 3568   3.125   0.275   1.975  0.0000  0.0000  0.0000
    11DUM    Ar 3569   3.425   0.125   1.825  0.0000  0.0000  0.0000
    11DUM    Ar 3570   3.575   0.275   1.825  0.0000  0.0000  0.0000
    11DUM    Ar 3571   3.575   0.125   1.975  0.0000  0.0000  0.0000
    11DUM    Ar 3572   3.425   0.275   1.975  0.0000  0.0000  0.0000
    11DUM    Ar 3573   3.725   0.125   1.825  0.0000  0.0000  0.0000
    11DUM    Ar 3574   3.875   0.275   1.825  0.0000  0.0000  0.0000
    11DUM    Ar 3575   3.875   0.125   1.975  0.0000  0.0000  0.0000
    11DUM    Ar 3576   3.725   0.275   1.975  0.0000  0.0000  0.0000
    11DUM    Ar 3577   4.025   0.125   1.825  0.0000  0.0000  0.0000
    11DUM    Ar 3578   4.175   0.275   1.825  0.0000  0.0000  0.0000
    11DUM    Ar 3579   4.175   0.125   1.975  0.0000  0.0000  0.0000
    11DUM    Ar 3580   4.025   0.275   1.975  0.0000  0.0000  0.0000
    11DUM    Ar 3581  -0.175   0.425   1.825  0.0000  0.0000  0.0000
    11DUM    Ar 3582  -0.025   0.575   1.825  0.0000  0.0000  0.0000
    11DUM    Ar 3583  -0.025   0.425   1.975  0.0000  0.0000  0.0000
    11DUM    Ar 3584  -0.175   0.575   1.975  0.0000  0.0000  0.0000
    11DUM    Ar 3585   0.125   0.425   1.825  0.0000  0.0000  0.0000
    11DUM    Ar 3586   0.275   0.575   1.825  0.0000  0.0000  0.0000
    11DUM    Ar 3587   0.275   0.425   1.975  0.0000  0.0000  0.0000
    11DUM    Ar 3588   0.125   0.575   1.975  0.0000  0.0000  0.0000
    11DUM    Ar 3589   0.425   0.425   1.825  0.0000  0.0000  0.0000
    11DUM    Ar 3590   0.575   0.425   1.975  0.0000  0.0000  0.0000
    11DUM    Ar 3591   0.425   0.575   1.975  0.0000  0.0000  0.0000
    11DUM    Ar 3592   0.725   0.425   1.825  0.0000  0.0000  0.0000
    11DUM    Ar 3593   1.325   0.425   1.825  0.0000  0.0000  0.0000
    11DUM    Ar 3594   1.475   0.575   1.825  0.0000  0.0000  0.0000
    11DUM    Ar 3595   1.475   0.425   1.975  0.0000  0.0000  0.0000
    11DUM    Ar 3596   1.625   0.425   1.825  0.0000  0.0000  0.0000
    11DUM    Ar 3597   1.775   0.575   1.825  0.0000  0.0000  0.0000
    11DUM    Ar 3598   1.775   0.425   1.975  0.0000  0.0000  0.0000
    11DUM    Ar 3599   1.625   0.575   1.975  0.0000  0.0000  0.0000
    11DUM    Ar 3600   1.925   0.425   1.825  0.0000  0.0000  0.0000
    11DUM    Ar 3601   2.075   0.575   1.825  0.0000  0.0000  0.0000
    11DUM    Ar 3602   2.075   0.425   1.975  0.0000  0.0000  0.0000
    11DUM    Ar 3603   1.925   0.575   1.975  0.0000  0.0000  0.0000
    11DUM    Ar 3604   2.225   0.425   1.825  0.0000  0.0000  0.0000
    11DUM    Ar 3605   2.375   0.575   1.825  0.0000  0.0000  0.0000
    11DUM    Ar 3606   2.375   0.425   1.975  0.0000  0.0000  0.0000
    11DUM    Ar 3607   2.225   0.575   1.975  0.0000  0.0000  0.0000
    11DUM    Ar 3608   2.525   0.425   1.825  0.0000  0.0000  0.0000
    11DUM    Ar 3609   2.675   0.425   1.975  0.0000  0.0000  0.0000
    11DUM    Ar 3610   2.525   0.575   1.975  0.0000  0.0000  0.0000
    11DUM    Ar 3611   3.275   0.425   1.975  0.0000  0.0000  0.0000
    11DUM    Ar 3612   3.425   0.425   1.825  0.0000  0.0000  0.0000
    11DUM    Ar 3613   3.575   0.575   1.825  0.0000  0.0000  0.0000
    11DUM    Ar 3614   3.575   0.425   1.975  0.0000  0.0000  0.0000
    11DUM    Ar 3615   3.725   0.425   1.825  0.0000  0.0000  0.0000
    11DUM    Ar 3616   3.875   0.575   1.825  0.0000  0.0000  0.0000
    11DUM    Ar 3617   3.875   0.425   1.975  0.0000  0.0000  0.0000
    11DUM    Ar 3618   3.725   0.575   1.975  0.0000  0.0000  0.0000
    11DUM    Ar 3619   4.025   0.425   1.825  0.0000  0.0000  0.0000
    11DUM    Ar 3620   4.175   0.575   1.825  0.0000  0.0000  0.0000
    11DUM    Ar 3621   4.175   0.425   1.975  0.0000  0.0000  0.0000
    11DUM    Ar 3622   4.025   0.575   1.975  0.0000  0.0000  0.0000
    11DUM    Ar 3623  -0.175   0.725   1.825  0.0000  0.0000  0.0000
    11DUM    Ar 3624  -0.025   0.875   1.825  0.0000  0.0000  0.0000
    11DUM    Ar 3625  -0.025   0.725   1.975  0.0000  0.0000  0.0000
    11DUM    Ar 3626  -0.175   0.875   1.975  0.0000  0.0000  0.0000
    11DUM    Ar 3627   0.125   0.725   1.825  0.0000  0.0000  0.0000
    11DUM    Ar 3628   0.275   0.875   1.825  0.0000  0.0000  0.0000
    11DUM    Ar 3629   0.275   0.725   1.975  0.0000  0.0000  0.0000
    11DUM    Ar 3630   0.125   0.875   1.975  0.0000  0.0000  0.0000
    11DUM    Ar 3631   0.425   0.725   1.825  0.0000  0.0000  0.0000
    11DUM    Ar 3632   1.625   0.725   1.825  0.0000  0.0000  0.0000
    11DUM    Ar 3633   1.775   0.875   1.825  0.0000  0.0000  0.0000
    11DUM    Ar 3634   1.775   0.725   1.975  0.0000  0.0000  0.0000
    11DUM    Ar 3635   1.625   0.875   1.975  0.0000  0.0000  0.0000
    11DUM    Ar 3636   1.925   0.725   1.825  0.0000  0.0000  0.0000
    11DUM    Ar 3637   2.075   0.875   1.825  0.0000  0.0000  0.0000
    11DUM    Ar 3638   2.075   0.725   1.975  0.0000  0.0000  0.0000
    11DUM    Ar 3639   1.925   0.875   1.975  0.0000  0.0000  0.0000
    11DUM    Ar 3640   2.225   0.725   1.825  0.0000  0.0000  0.0000
    11DUM    Ar 3641   2.375   0.875   1.825  0.0000  0.0000  0.0000
    11DUM    Ar 3642   2.375   0.725   1.975  0.0000  0.0000  0.0000
    11DUM    Ar 3643   2.225   0.875   1.975  0.0000  0.0000  0.0000
    11DUM    Ar 3644   3.575   0.725   1.975  0.0000  0.0000  0.0000
    11DUM    Ar 3645   3.725   0.725   1.825  0.0000  0.0000  0.0000
    11DUM    Ar 3646   3.875   0.875   1.825  0.0000  0.0000  0.0000
    11DUM    Ar 3647   3.875   0.725   1.975  0.0000  0.0000  0.0000
    11DUM    Ar 3648   3.725   0.875   1.975  0.0000  0.0000  0.0000
    11DUM    Ar 3649   4.025   0.725   1.825  0.0000  0.0000  0.0000
    11DUM    Ar 3650   4.175   0.875   1.825  0.0000  0.0000  0.0000
    11DUM    Ar 3651   4.175   0.725   1.975  0.0000  0.0000  0.0000
    11DUM    Ar 3652   4.025   0.875   1.975  0.0000  0.0000  0.0000
    11DUM    Ar 3653  -0.175   1.025   1.825  0.0000  0.0000  0.0000
    11DUM    Ar 3654  -0.025   1.175   1.825  0.0000  0.0000  0.0000
    11DUM    Ar 3655  -0.025   1.025   1.975  0.0000  0.0000  0.0000
    11DUM    Ar 3656  -0.175   1.175   1.975  0.0000  0.0000  0.0000
    11DUM    Ar 3657   0.125   1.025   1.825  0.0000  0.0000  0.0000
    11DUM    Ar 3658   0.275   1.175   1.825  0.0000  0.0000  0.0000
    11DUM    Ar 3659   0.275   1.025   1.975  0.0000  0.0000  0.0000
    11DUM    Ar 3660   0.125   1.175   1.975  0.0000  0.0000  0.0000
    11DUM    Ar 3661   1.625   1.025   1.825  0.0000  0.0000  0.0000
    11DUM    Ar 3662   1.775   1.175   1.825  0.0000  0.0000  0.0000
    11DUM    Ar 3663   1.775   1.025   1.975  0.0000  0.0000  0.0000
    11DUM    Ar 3664   1.625   1.175   1.975  0.0000  0.0000  0.0000
    11DUM    Ar 3665   1.925   1.025   1.825  0.0000  0.0000  0.0000
    11DUM    Ar 3666   2.075   1.175   1.825  0.0000  0.0000  0.0000
    11DUM    Ar 3667   2.075   1.025   1.975  0.0000  0.0000  0.0000
    11DUM    Ar 3668   1.925   1.175   1.975  0.0000  0.0000  0.0000
    11DUM    Ar 3669   2.225   1.025   1.825  0.0000  0.0000  0.0000
    11DUM    Ar 3670   2.375   1.175   1.825  0.0000  0.0000  0.0000
    11DUM    Ar 3671   2.375   1.025   1.975  0.0000  0.0000  0.0000
    11DUM    Ar 3672   2.225   1.175   1.975  0.0000  0.0000  0.0000
    11DUM    Ar 3673   3.725   1.025   1.825  0.0000  0.0000  0.0000
    11DUM    Ar 3674   3.875   1.175   1.825  0.0000  0.0000  0.0000
    11DUM    Ar 3675   3.875   1.025   1.975  0.0000  0.0000  0.0000
    11DUM    Ar 3676   3.725   1.175   1.975  0.0000  0.0000  0.0000
    11DUM    Ar 3677   4.025   1.025   1.825  0.0000  0.0000  0.0000
    11DUM    Ar 3678   4.175   1.175   1.825  0.0000  0.0000  0.0000
    11DUM    Ar 3679   4.175   1.025   1.975  0.0000  0.0000  0.0000
    11DUM    Ar 3680   4.025   1.175   1.975  0.0000  0.0000  0.0000
    11DUM    Ar 3681  -0.175   1.325   1.825  0.0000  0.0000  0.0000
    11DUM    Ar 3682  -0.025   1.475   1.825  0.0000  0.0000  0.0000
    11DUM    Ar 3683  -0.025   1.325   1.975  0.0000  0.0000  0.0000
    11DUM    Ar 3684  -0.175   1.475   1.975  0.0000  0.0000  0.0000
    11DUM    Ar 3685   0.125   1.325   1.825  0.0000  0.0000  0.0000
    11DUM    Ar 3686   0.275   1.475   1.825  0.0000  0.0000  0.0000
    11DUM    Ar 3687   0.275   1.325   1.975  0.0000  0.0000  0.0000
    11DUM    Ar 3688   0.125   1.475   1.975  0.0000  0.0000  0.0000
    11DUM    Ar 3689   0.425   1.325   1.825  0.0000  0.0000  0.0000
    11DUM    Ar 3690   0.575   1.475   1.825  0.0000  0.0000  0.0000
    11DUM    Ar 3691   0.425   1.475   1.975  0.0000  0.0000  0.0000
    11DUM    Ar 3692   1.475   1.475   1.825  0.0000  0.0000  0.0000
    11DUM    Ar 3693   1.625   1.325   1.825  0.0000  0.0000  0.0000
    11DUM    Ar 3694   1.775   1.475   1.825  0.0000  0.0000  0.0000
    11DUM    Ar 3695   1.775   1.325   1.975  0.0000  0.0000  0.0000
    11DUM    Ar 3696   1.625   1.475   1.975  0.0000  0.0000  0.0000
    11DUM    Ar 3697   1.925   1.325   1.825  0.0000  0.0000  0.0000
    11DUM    Ar 3698   2.075   1.475   1.825  0.0000  0.0000  0.0000
    11DUM    Ar 3699   2.075   1.325   1.975  0.0000  0.0000  0.0000
    11DUM    Ar 3700   1.925   1.475   1.975  0.0000  0.0000  0.0000
    11DUM    Ar 3701   2.225   1.325   1.825  0.0000  0.0000  0.0000
    11DUM    Ar 3702   2.375   1.475   1.825  0.0000  0.0000  0.0000
    11DUM    Ar 3703   2.375   1.325   1.975  0.0000  0.0000  0.0000
    11DUM    Ar 3704   2.225   1.475   1.975  0.0000  0.0000  0.0000
    11DUM    Ar 3705   2.525   1.475   1.975  0.0000  0.0000  0.0000
    11DUM    Ar 3706   3.575   1.475   1.825  0.0000  0.0000  0.0000
    11DUM    Ar 3707   3.575   1.325   1.975  0.0000  0.0000  0.0000
    11DUM    Ar 3708   3.425   1.475   1.975  0.0000  0.0000  0.0000
    11DUM    Ar 3709   3.725   1.325   1.825  0.0000  0.0000  0.0000
    11DUM    Ar 3710   3.875   1.475   1.825  0.0000  0.0000  0.0000
    11DUM    Ar 3711   3.875   1.325   1.975  0.0000  0.0000  0.0000
    11DUM    Ar 3712   3.725   1.475   1.975  0.0000  0.0000  0.0000
    11DUM    Ar 3713   4.025   1.325   1.825  0.0000  0.0000  0.0000
    11DUM    Ar 3714   4.175   1.475   1.825  0.0000  0.0000  0.0000
    11DUM    Ar 3715   4.175   1.325   1.975  0.0000  0.0000  0.0000
    11DUM    Ar 3716   4.025   1.475   1.975  0.0000  0.0000  0.0000
    11DUM    Ar 3717  -0.175   1.625   1.825  0.0000  0.0000  0.0000
    11DUM    Ar 3718  -0.025   1.775   1.825  0.0000  0.0000  0.0000
    11DUM    Ar 3719  -0.025   1.625   1.975  0.0000  0.0000  0.0000
    11DUM    Ar 3720  -0.175   1.775   1.975  0.0000  0.0000  0.0000
    11DUM    Ar 3721   0.125   1.625   1.825  0.0000  0.0000  0.0000
    11DUM    Ar 3722   0.275   1.775   1.825  0.0000  0.0000  0.0000
    11DUM    Ar 3723   0.275   1.625   1.975  0.0000  0.0000  0.0000
    11DUM    Ar 3724   0.125   1.775   1.975  0.0000  0.0000  0.0000
    11DUM    Ar 3725   0.425   1.625   1.825  0.0000  0.0000  0.0000
    11DUM    Ar 3726   0.575   1.775   1.825  0.0000  0.0000  0.0000
    11DUM    Ar 3727   0.575   1.625   1.975  0.0000  0.0000  0.0000
    11DUM    Ar 3728   0.425   1.775   1.975  0.0000  0.0000  0.0000
    11DUM    Ar 3729   0.725   1.625   1.825  0.0000  0.0000  0.0000
    11DUM    Ar 3730   0.875   1.775   1.825  0.0000  0.0000  0.0000
    11DUM    Ar 3731   0.875   1.625   1.975  0.0000  0.0000  0.0000
    11DUM    Ar 3732   0.725   1.775   1.975  0.0000  0.0000  0.0000
    11DUM    Ar 3733   1.025   1.625   1.825  0.0000  0.0000  0.0000
    11DUM    Ar 3734   1.175   1.775   1.825  0.0000  0.0000  0.0000
    11DUM    Ar 3735   1.175   1.625   1.975  0.0000  0.0000  0.0000
    11DUM    Ar 3736   1.025   1.775   1.975  0.0000  0.0000  0.0000
    11DUM    Ar 3737   1.325   1.625   1.825  0.0000  0.0000  0.0000
    11DUM    Ar 3738   1.475   1.775   1.825  0.0000  0.0000  0.0000
    11DUM    Ar 3739   1.475   1.625   1.975  0.0000  0.0000  0.0000
    11DUM    Ar 3740   1.325   1.775   1.975  0.0000  0.0000  0.0000
    11DUM    Ar 3741   1.625   1.625   1.825  0.0000  0.0000  0.0000
    11DUM    Ar 3742   1.775   1.775   1.825  0.0000  0.0000  0.0000
    11DUM    Ar 3743   1.775   1.625   1.975  0.0000  0.0000  0.0000
    11DUM    Ar 3744   1.625   1.775   1.975  0.0000  0.0000  0.0000
    11DUM    Ar 3745   1.925   1.625   1.825  0.0000  0.0000  0.0000
    11DUM    Ar 3746   2.075   1.775   1.825  0.0000  0.0000  0.0000
    11DUM    Ar 3747   2.075   1.625   1.975  0.0000  0.0000  0.0000
    11DUM    Ar 3748   1.925   1.775   1.975  0.0000  0.0000  0.0000
    11DUM    Ar 3749   2.225   1.625   1.825  0.0000  0.0000  0.0000
    11DUM    Ar 3750   2.375   1.775   1.825  0.0000  0.0000  0.0000
    11DUM    Ar 3751   2.375   1.625   1.975  0.0000  0.0000  0.0000
    11DUM    Ar 3752   2.225   1.775   1.975  0.0000  0.0000  0.0000
    11DUM    Ar 3753   2.525   1.625   1.825  0.0000  0.0000  0.0000
    11DUM    Ar 3754   2.675   1.775   1.825  0.0000  0.0000  0.0000
    11DUM    Ar 3755   2.675   1.625   1.975  0.0000  0.0000  0.0000
    11DUM    Ar 3756   2.525   1.775   1.975  0.0000  0.0000  0.0000
    11DUM    Ar 3757   2.825   1.625   1.825  0.0000  0.0000  0.0000
    11DUM    Ar 3758   2.975   1.775   1.825  0.0000  0.0000  0.0000
    11DUM    Ar 3759   2.975   1.625   1.975  0.0000  0.0000  0.0000
    11DUM    Ar 3760   2.825   1.775   1.975  0.0000  0.0000  0.0000
    11DUM    Ar 3761   3.125   1.625   1.825  0.0000  0.0000  0.0000
    11DUM    Ar 3762   3.275   1.775   1.825  0.0000  0.0000  0.0000
    11DUM    Ar 3763   3.275   1.625   1.975  0.0000  0.0000  0.0000
    11DUM    Ar 3764   3.125   1.775   1.975  0.0000  0.0000  0.0000
    11DUM    Ar 3765   3.425   1.625   1.825  0.0000  0.0000  0.0000
    11DUM    Ar 3766   3.575   1.775   1.825  0.0000  0.0000  0.0000
    11DUM    Ar 3767   3.575   1.625   1.975  0.0000  0.0000  0.0000
    11DUM    Ar 3768   3.425   1.775   1.975  0.0000  0.0000  0.0000
    11DUM    Ar 3769   3.725   1.625   1.825  0.0000  0.0000  0.0000
    11DUM    Ar 3770   3.875   1.775   1.825  0.0000  0.0000  0.0000
    11DUM    Ar 3771   3.875   1.625   1.975  0.0000  0.0000  0.0000
    11DUM    Ar 3772   3.725   1.775   1.975  0.0000  0.0000  0.0000
    11DUM    Ar 3773   4.025   1.625   1.825  0.0000  0.0000  0.0000
    11DUM    Ar 3774   4.175   1.775   1.825  0.0000  0.0000  0.0000
    11DUM    Ar 3775   4.175   1.625   1.975  0.0000  0.0000  0.0000
    11DUM    Ar 3776   4.025   1.775   1.975  0.0000  0.0000  0.0000
    11DUM    Ar 3777  -0.175   1.925   1.825  0.0000  0.0000  0.0000
    11DUM    Ar 3778  -0.025   2.075   1.825  0.0000  0.0000  0.0000
    11DUM    Ar 3779  -0.025   1.925   1.975  0.0000  0.0000  0.0000
    11DUM    Ar 3780  -0.175   2.075   1.975  0.0000  0.0000  0.0000
    11DUM    Ar 3781   0.125   1.925   1.825  0.0000  0.0000  0.0000
    11DUM    Ar 3782   0.275   2.075   1.825  0.0000  0.0000  0.0000
    11DUM    Ar 3783   0.275   1.925   1.975  0.0000  0.0000  0.0000
    11DUM    Ar 3784   0.125   2.075   1.975  0.0000  0.0000  0.0000
    11DUM    Ar 3785   0.425   1.925   1.825  0.0000  0.0000  0.0000
    11DUM    Ar 3786   0.575   2.075   1.825  0.0000  0.0000  0.0000
    11DUM    Ar 3787   0.575   1.925   1.975  0.0000  0.0000  0.0000
    11DUM    Ar 3788   0.425   2.075   1.975  0.0000  0.0000  0.0000
    11DUM    Ar 3789   0.725   1.925   1.825  0.0000  0.0000  0.0000
    11DUM    Ar 3790   0.875   2.075   1.825  0.0000  0.0000  0.0000
    11DUM    Ar 3791   0.875   1.925   1.975  0.0000  0.0000  0.0000
    11DUM    Ar 3792   0.725   2.075   1.975  0.0000  0.0000  0.0000
    11DUM    Ar 3793   1.025   1.925   1.825  0.0000  0.0000  0.0000
    11DUM    Ar 3794   1.175   2.075   1.825  0.0000  0.0000  0.0000
    11DUM    Ar 3795   1.175   1.925   1.975  0.0000  0.0000  0.0000
    11DUM    Ar 3796   1.025   2.075   1.975  0.0000  0.0000  0.0000
    11DUM    Ar 3797   1.325   1.925   1.825  0.0000  0.0000  0.0000
    11DUM    Ar 3798   1.475   2.075   1.825  0.0000  0.0000  0.0000
    11DUM    Ar 3799   1.475   1.925   1.975  0.0000  0.0000  0.0000
    11DUM    Ar 3800   1.325   2.075   1.975  0.0000  0.0000  0.0000
    11DUM    Ar 3801   1.625   1.925   1.825  0.0000  0.0000  0.0000
    11DUM    Ar 3802   1.775   2.075   1.825  0.0000  0.0000  0.0000
    11DUM    Ar 3803   1.775   1.925   1.975  0.0000  0.0000  0.0000
    11DUM    Ar 3804   1.625   2.075   1.975  0.0000  0.0000  0.0000
    11DUM    Ar 3805   1.925   1.925   1.825  0.0000  0.0000  0.0000
    11DUM    Ar 3806   2.075   2.075   1.825  0.0000  0.0000  0.0000
    11DUM    Ar 3807   2.075   1.925   1.975  0.0000  0.0000  0.0000
    11DUM    Ar 3808   1.925   2.075   1.975  0.0000  0.0000  0.0000
    11DUM    Ar 3809   2.225   1.925   1.825  0.0000  0.0000  0.0000
    11DUM    Ar 3810   2.375   2.075   1.825  0.0000  0.0000  0.0000
    11DUM    Ar 3811   2.375   1.925   1.975  0.0000  0.0000  0.0000
    11DUM    Ar 3812   2.225   2.075   1.975  0.0000  0.0000  0.0000
    11DUM    Ar 3813   2.525   1.925   1.825  0.0000  0.0000  0.0000
    11DUM    Ar 3814   2.675   2.075   1.825  0.0000  0.0000  0.0000
    11DUM    Ar 3815   2.675   1.925   1.975  0.0000  0.0000  0.0000
    11DUM    Ar 3816   2.525   2.075   1.975  0.0000  0.0000  0.0000
    11DUM    Ar 3817   2.825   1.925   1.825  0.0000  0.0000  0.0000
    11DUM    Ar 3818   2.975   2.075   1.825  0.0000  0.0000  0.0000
    11DUM    Ar 3819   2.975   1.925   1.975  0.0000  0.0000  0.0000
    11DUM    Ar 3820   2.825   2.075   1.975  0.0000  0.0000  0.0000
    11DUM    Ar 3821   3.125   1.925   1.825  0.0000  0.0000  0.0000
    11DUM    Ar 3822   3.275   2.075   1.825  0.0000  0.0000  0.0000
    11DUM    Ar 3823   3.275   1.925   1.975  0.0000  0.0000  0.0000
    11DUM    Ar 3824   3.125   2.075   1.975  0.0000  0.0000  0.0000
    11DUM    Ar 3825   3.425   1.925   1.825  0.0000  0.0000  0.0000
    11DUM    Ar 3826   3.575   2.075   1.825  0.0000  0.0000  0.0000
    11DUM    Ar 3827   3.575   1.925   1.975  0.0000  0.0000  0.0000
    11DUM    Ar 3828   3.425   2.075   1.975  0.0000  0.0000  0.0000
    11DUM    Ar 3829   3.725   1.925   1.825  0.0000  0.0000  0.0000
    11DUM    Ar 3830   3.875   2.075   1.825  0.0000  0.0000  0.0000
    11DUM    Ar 3831   3.875   1.925   1.975  0.0000  0.0000  0.0000
    11DUM    Ar 3832   3.725   2.075   1.975  0.0000  0.0000  0.0000
    11DUM    Ar 3833   4.025   1.925   1.825  0.0000  0.0000  0.0000
    11DUM    Ar 3834   4.175   2.075   1.825  0.0000  0.0000  0.0000
    11DUM    Ar 3835   4.175   1.925   1.975  0.0000  0.0000  0.0000
    11DUM    Ar 3836   4.025   2.075   1.975  0.0000  0.0000  0.0000
    11DUM    Ar 3837  -0.175   2.225   1.825  0.0000  0.0000  0.0000
    11DUM    Ar 3838  -0.025   2.375   1.825  0.0000  0.0000  0.0000
    11DUM    Ar 3839  -0.025   2.225   1.975  0.0000  0.0000  0.0000
    11DUM    Ar 3840  -0.175   2.375   1.975  0.0000  0.0000  0.0000
    11DUM    Ar 3841   0.125   2.225   1.825  0.0000  0.0000  0.0000
    11DUM    Ar 3842   0.275   2.375   1.825  0.0000  0.0000  0.0000
    11DUM    Ar 3843   0.275   2.225   1.975  0.0000  0.0000  0.0000
    11DUM    Ar 3844   0.125   2.375   1.975  0.0000  0.0000  0.0000
    11DUM    Ar 3845   0.425   2.225   1.825  0.0000  0.0000  0.0000
    11DUM    Ar 3846   0.575   2.375   1.825  0.0000  0.0000  0.0000
    11DUM    Ar 3847   0.575   2.225   1.975  0.0000  0.0000  0.0000
    11DUM    Ar 3848   0.425   2.375   1.975  0.0000  0.0000  0.0000
    11DUM    Ar 3849   0.725   2.225   1.825  0.0000  0.0000  0.0000
    11DUM    Ar 3850   0.875   2.375   1.825  0.0000  0.0000  0.0000
    11DUM    Ar 3851   0.875   2.225   1.975  0.0000  0.0000  0.0000
    11DUM    Ar 3852   0.725   2.375   1.975  0.0000  0.0000  0.0000
    11DUM    Ar 3853   1.025   2.225   1.825  0.0000  0.0000  0.0000
    11DUM    Ar 3854   1.175   2.375   1.825  0.0000  0.0000  0.0000
    11DUM    Ar 3855   1.175   2.225   1.975  0.0000  0.0000  0.0000
    11DUM    Ar 3856   1.025   2.375   1.975  0.0000  0.0000  0.0000
    11DUM    Ar 3857   1.325   2.225   1.825  0.0000  0.0000  0.0000
    11DUM    Ar 3858   1.475   2.375   1.825  0.0000  0.0000  0.0000
    11DUM    Ar 3859   1.475   2.225   1.975  0.0000  0.0000  0.0000
    11DUM    Ar 3860   1.325   2.375   1.975  0.0000  0.0000  0.0000
    11DUM    Ar 3861   1.625   2.225   1.825  0.0000  0.0000  0.0000
    11DUM    Ar 3862   1.775   2.375   1.825  0.0000  0.0000  0.0000
    11DUM    Ar 3863   1.775   2.225   1.975  0.0000  0.0000  0.0000
    11DUM    Ar 3864   1.625   2.375   1.975  0.0000  0.0000  0.0000
    11DUM    Ar 3865   1.925   2.225   1.825  0.0000  0.0000  0.0000
    11DUM    Ar 3866   2.075   2.375   1.825  0.0000  0.0000  0.0000
    11DUM    Ar 3867   2.075   2.225   1.975  0.0000  0.0000  0.0000
    11DUM    Ar 3868   1.925   2.375   1.975  0.0000  0.0000  0.0000
    11DUM    Ar 3869   2.225   2.225   1.825  0.0000  0.0000  0.0000
    11DUM    Ar 3870   2.375   2.375   1.825  0.0000  0.0000  0.0000
    11DUM    Ar 3871   2.375   2.225   1.975  0.0000  0.0000  0.0000
    11DUM    Ar 3872   2.225   2.375   1.975  0.0000  0.0000  0.0000
    11DUM    Ar 3873   2.525   2.225   1.825  0.0000  0.0000  0.0000
    11DUM    Ar 3874   2.675   2.375   1.825  0.0000  0.0000  0.0000
    11DUM    Ar 3875   2.675   2.225   1.975  0.0000  0.0000  0.0000
    11DUM    Ar 3876   2.525   2.375   1.975  0.0000  0.0000  0.0000
    11DUM    Ar 3877   2.825   2.225   1.825  0.0000  0.0000  0.0000
    11DUM    Ar 3878   2.975   2.375   1.825  0.0000  0.0000  0.0000
    11DUM    Ar 3879   2.975   2.225   1.975  0.0000  0.0000  0.0000
    11DUM    Ar 3880   2.825   2.375   1.975  0.0000  0.0000  0.0000
    11DUM    Ar 3881   3.125   2.225   1.825  0.0000  0.0000  0.0000
    11DUM    Ar 3882   3.275   2.375   1.825  0.0000  0.0000  0.0000
    11DUM    Ar 3883   3.275   2.225   1.975  0.0000  0.0000  0.0000
    11DUM    Ar 3884   3.125   2.375   1.975  0.0000  0.0000  0.0000
    11DUM    Ar 3885   3.425   2.225   1.825  0.0000  0.0000  0.0000
    11DUM    Ar 3886   3.575   2.375   1.825  0.0000  0.0000  0.0000
    11DUM    Ar 3887   3.575   2.225   1.975  0.0000  0.0000  0.0000
    11DUM    Ar 3888   3.425   2.375   1.975  0.0000  0.0000  0.0000
    11DUM    Ar 3889   3.725   2.225   1.825  0.0000  0.0000  0.0000
    11DUM    Ar 3890   3.875   2.375   1.825  0.0000  0.0000  0.0000
    11DUM    Ar 3891   3.875   2.225   1.975  0.0000  0.0000  0.0000
    11DUM    Ar 3892   3.725   2.375   1.975  0.0000  0.0000  0.0000
    11DUM    Ar 3893   4.025   2.225   1.825  0.0000  0.0000  0.0000
    11DUM    Ar 3894   4.175   2.375   1.825  0.0000  0.0000  0.0000
    11DUM    Ar 3895   4.175   2.225   1.975  0.0000  0.0000  0.0000
    11DUM    Ar 3896   4.025   2.375   1.975  0.0000  0.0000  0.0000
    11DUM    Ar 3897  -0.175   2.525   1.825  0.0000  0.0000  0.0000
    11DUM    Ar 3898  -0.025   2.675   1.825  0.0000  0.0000  0.0000
    11DUM    Ar 3899  -0.025   2.525   1.975  0.0000  0.0000  0.0000
    11DUM    Ar 3900  -0.175   2.675   1.975  0.0000  0.0000  0.0000
    11DUM    Ar 3901   0.125   2.525   1.825  0.0000  0.0000  0.0000
    11DUM    Ar 3902   0.275   2.675   1.825  0.0000  0.0000  0.0000
    11DUM    Ar 3903   0.275   2.525   1.975  0.0000  0.0000  0.0000
    11DUM    Ar 3904   0.125   2.675   1.975  0.0000  0.0000  0.0000
    11DUM    Ar 3905   0.425   2.525   1.825  0.0000  0.0000  0.0000
    11DUM    Ar 3906   0.575   2.525   1.975  0.0000  0.0000  0.0000
    11DUM    Ar 3907   0.425   2.675   1.975  0.0000  0.0000  0.0000
    11DUM    Ar 3908   1.475   2.525   1.975  0.0000  0.0000  0.0000
    11DUM    Ar 3909   1.625   2.525   1.825  0.0000  0.0000  0.0000
    11DUM    Ar 3910   1.775   2.675   1.825  0.0000  0.0000  0.0000
    11DUM    Ar 3911   1.775   2.525   1.975  0.0000  0.0000  0.0000
    11DUM    Ar 3912   1.625   2.675   1.975  0.0000  0.0000  0.0000
    11DUM    Ar 3913   1.925   2.525   1.825  0.0000  0.0000  0.0000
    11DUM    Ar 3914   2.075   2.675   1.825  0.0000  0.0000  0.0000
    11DUM    Ar 3915   2.075   2.525   1.975  0.0000  0.0000  0.0000
    11DUM    Ar 3916   1.925   2.675   1.975  0.0000  0.0000  0.0000
    11DUM    Ar 3917   2.225   2.525   1.825  0.0000  0.0000  0.0000
    11DUM    Ar 3918   2.375   2.675   1.825  0.0000  0.0000  0.0000
    11DUM    Ar 3919   2.375   2.525   1.975  0.0000  0.0000  0.0000
    11DUM    Ar 3920   2.225   2.675   1.975  0.0000  0.0000  0.0000
    11DUM    Ar 3921   2.525   2.525   1.825  0.0000  0.0000  0.0000
    11DUM    Ar 3922   3.425   2.525   1.825  0.0000  0.0000  0.0000
    11DUM    Ar 3923   3.575   2.675   1.825  0.0000  0.0000  0.0000
    11DUM    Ar 3924   3.575   2.525   1.975  0.0000  0.0000  0.0000
    11DUM    Ar 3925   3.725   2.525   1.825  0.0000  0.0000  0.0000
    11DUM    Ar 3926   3.875   2.675   1.825  0.0000  0.0000  0.0000
    11DUM    Ar 3927   3.875   2.525   1.975  0.0000  0.0000  0.0000
    11DUM    Ar 3928   3.725   2.675   1.975  0.0000  0.0000  0.0000
    11DUM    Ar 3929   4.025   2.525   1.825  0.0000  0.0000  0.0000
    11DUM    Ar 3930   4.175   2.675   1.825  0.0000  0.0000  0.0000
    11DUM    Ar 3931   4.175   2.525   1.975  0.0000  0.0000  0.0000
    11DUM    Ar 3932   4.025   2.675   1.975  0.0000  0.0000  0.0000
    11DUM    Ar 3933  -0.175   2.825   1.825  0.0000  0.0000  0.0000
    11DUM    Ar 3934  -0.025   2.975   1.825  0.0000  0.0000  0.0000
    11DUM    Ar 3935  -0.025   2.825   1.975  0.0000  0.0000  0.0000
    11DUM    Ar 3936  -0.175   2.975   1.975  0.0000  0.0000  0.0000
    11DUM    Ar 3937   0.125   2.825   1.825  0.0000  0.0000  0.0000
    11DUM    Ar 3938   0.275   2.975   1.825  0.0000  0.0000  0.0000
    11DUM    Ar 3939   0.275   2.825   1.975  0.0000  0.0000  0.0000
    11DUM    Ar 3940   0.125   2.975   1.975  0.0000  0.0000  0.0000
    11DUM    Ar 3941   1.625   2.825   1.825  0.0000  0.0000  0.0000
    11DUM    Ar 3942   1.775   2.975   1.825  0.0000  0.0000  0.0000
    11DUM    Ar 3943   1.775   2.825   1.975  0.0000  0.0000  0.0000
    11DUM    Ar 3944   1.625   2.975   1.975  0.0000  0.0000  0.0000
    11DUM    Ar 3945   1.925   2.825   1.825  0.0000  0.0000  0.0000
    11DUM    Ar 3946   2.075   2.975   1.825  0.0000  0.0000  0.0000
    11DUM    Ar 3947   2.075   2.825   1.975  0.0000  0.0000  0.0000
    11DUM    Ar 3948   1.925   2.975   1.975  0.0000  0.0000  0.0000
    11DUM    Ar 3949   2.225   2.825   1.825  0.0000  0.0000  0.0000
    11DUM    Ar 3950   2.375   2.975   1.825  0.0000  0.0000  0.0000
    11DUM    Ar 3951   2.375   2.825   1.975  0.0000  0.0000  0.0000
    11DUM    Ar 3952   2.225   2.975   1.975  0.0000  0.0000  0.0000
    11DUM    Ar 3953   3.725   2.825   1.825  0.0000  0.0000  0.0000
    11DUM    Ar 3954   3.875   2.975   1.825  0.0000  0.0000  0.0000
    11DUM    Ar 3955   3.875   2.825   1.975  0.0000  0.0000  0.0000
    11DUM    Ar 3956   3.725   2.975   1.975  0.0000  0.0000  0.0000
    11DUM    Ar 3957   4.025   2.825   1.825  0.0000  0.0000  0.0000
    11DUM    Ar 3958   4.175   2.975   1.825  0.0000  0.0000  0.0000
    11DUM    Ar 3959   4.175   2.825   1.975  0.0000  0.0000  0.0000
    11DUM    Ar 3960   4.025   2.975   1.975  0.0000  0.0000  0.0000
    11DUM    Ar 3961  -0.175   3.125   1.825  0.0000  0.0000  0.0000
    11DUM    Ar 3962  -0.025   3.275   1.825  0.0000  0.0000  0.0000
    11DUM    Ar 3963  -0.025   3.125   1.975  0.0000  0.0000  0.0000
    11DUM    Ar 3964  -0.175   3.275   1.975  0.0000  0.0000  0.0000
    11DUM    Ar 3965   0.125   3.125   1.825  0.0000  0.0000  0.0000
    11DUM    Ar 3966   0.275   3.275   1.825  0.0000  0.0000  0.0000
    11DUM    Ar 3967   0.275   3.125   1.975  0.0000  0.0000  0.0000
    11DUM    Ar 3968   0.125   3.275   1.975  0.0000  0.0000  0.0000
    11DUM    Ar 3969   0.425   3.275   1.975  0.0000  0.0000  0.0000
    11DUM    Ar 3970   1.625   3.125   1.825  0.0000  0.0000  0.0000
    11DUM    Ar 3971   1.775   3.275   1.825  0.0000  0.0000  0.0000
    11DUM    Ar 3972   1.775   3.125   1.975  0.0000  0.0000  0.0000
    11DUM    Ar 3973   1.625   3.275   1.975  0.0000  0.0000  0.0000
    11DUM    Ar 3974   1.925   3.125   1.825  0.0000  0.0000  0.0000
    11DUM    Ar 3975   2.075   3.275   1.825  0.0000  0.0000  0.0000
    11DUM    Ar 3976   2.075   3.125   1.975  0.0000  0.0000  0.0000
    11DUM    Ar 3977   1.925   3.275   1.975  0.0000  0.0000  0.0000
    11DUM    Ar 3978   2.225   3.125   1.825  0.0000  0.0000  0.0000
    11DUM    Ar 3979   2.375   3.275   1.825  0.0000  0.0000  0.0000
    11DUM    Ar 3980   2.375   3.125   1.975  0.0000  0.0000  0.0000
    11DUM    Ar 3981   2.225   3.275   1.975  0.0000  0.0000  0.0000
    11DUM    Ar 3982   3.575   3.275   1.825  0.0000  0.0000  0.0000
    11DUM    Ar 3983   3.725   3.125   1.825  0.0000  0.0000  0.0000
    11DUM    Ar 3984   3.875   3.275   1.825  0.0000  0.0000  0.0000
    11DUM    Ar 3985   3.875   3.125   1.975  0.0000  0.0000  0.0000
    11DUM    Ar 3986   3.725   3.275   1.975  0.0000  0.0000  0.0000
    11DUM    Ar 3987   4.025   3.125   1.825  0.0000  0.0000  0.0000
    11DUM    Ar 3988   4.175   3.275   1.825  0.0000  0.0000  0.0000
    11DUM    Ar 3989   4.175   3.125   1.975  0.0000  0.0000  0.0000
    11DUM    Ar 3990   4.025   3.275   1.975  0.0000  0.0000  0.0000
    11DUM    Ar 3991  -0.175   3.425   1.825  0.0000  0.0000  0.0000
    11DUM    Ar 3992  -0.025   3.575   1.825  0.0000  0.0000  0.0000
    11DUM    Ar 3993  -0.025   3.425   1.975  0.0000  0.0000  0.0000
    11DUM    Ar 3994  -0.175   3.575   1.975  0.0000  0.0000  0.0000
    11DUM    Ar 3995   0.125   3.425   1.825  0.0000  0.0000  0.0000
    11DUM    Ar 3996   0.275   3.575   1.825  0.0000  0.0000  0.0000
    11DUM    Ar 3997   0.275   3.425   1.975  0.0000  0.0000  0.0000
    11DUM    Ar 3998   0.125   3.575   1.975  0.0000  0.0000  0.0000
    11DUM    Ar 3999   0.425   3.425   1.825  0.0000  0.0000  0.0000
    11DUM    Ar 4000   0.575   3.575   1.825  0.0000  0.0000  0.0000
    11DUM    Ar 4001   0.425   3.575   1.975  0.0000  0.0000  0.0000
    11DUM    Ar 4002   0.725   3.575   1.975  0.0000  0.0000  0.0000
    11DUM    Ar 4003   1.475   3.575   1.825  0.0000  0.0000  0.0000
    11DUM    Ar 4004   1.475   3.425   1.975  0.0000  0.0000  0.0000
    11DUM    Ar 4005   1.325   3.575   1.975  0.0000  0.0000  0.0000
    11DUM    Ar 4006   1.625   3.425   1.825  0.0000  0.0000  0.0000
    11DUM    Ar 4007   1.775   3.575   1.825  0.0000  0.0000  0.0000
    11DUM    Ar 4008   1.775   3.425   1.975  0.0000  0.0000  0.0000
    11DUM    Ar 4009   1.625   3.575   1.975  0.0000  0.0000  0.0000
    11DUM    Ar 4010   1.925   3.425   1.825  0.0000  0.0000  0.0000
    11DUM    Ar 4011   2.075   3.575   1.825  0.0000  0.0000  0.0000
    11DUM    Ar 4012   2.075   3.425   1.975  0.0000  0.0000  0.0000
    11DUM    Ar 4013   1.925   3.575   1.975  0.0000  0.0000  0.0000
    11DUM    Ar 4014   2.225   3.425   1.825  0.0000  0.0000  0.0000
    11DUM    Ar 4015   2.375   3.575   1.825  0.0000  0.0000  0.0000
    11DUM    Ar 4016   2.375   3.425   1.975  0.0000  0.0000  0.0000
    11DUM    Ar 4017   2.225   3.575   1.975  0.0000  0.0000  0.0000
    11DUM    Ar 4018   2.525   3.425   1.825  0.0000  0.0000  0.0000
    11DUM    Ar 4019   2.675   3.575   1.825  0.0000  0.0000  0.0000
    11DUM    Ar 4020   2.525   3.575   1.975  0.0000  0.0000  0.0000
    11DUM    Ar 4021   3.275   3.575   1.825  0.0000  0.0000  0.0000
    11DUM    Ar 4022   3.575   3.575   1.825  0.0000  0.0000  0.0000
    11DUM    Ar 4023   3.575   3.425   1.975  0.0000  0.0000  0.0000
    11DUM    Ar 4024   3.425   3.575   1.975  0.0000  0.0000  0.0000
    11DUM    Ar 4025   3.725   3.425   1.825  0.0000  0.0000  0.0000
    11DUM    Ar 4026   3.875   3.575   1.825  0.0000  0.0000  0.0000
    11DUM    Ar 4027   3.875   3.425   1.975  0.0000  0.0000  0.0000
    11DUM    Ar 4028   3.725   3.575   1.975  0.0000  0.0000  0.0000
    11DUM    Ar 4029   4.025   3.425   1.825  0.0000  0.0000  0.0000
    11DUM    Ar 4030   4.175   3.575   1.825  0.0000  0.0000  0.0000
    11DUM    Ar 4031   4.175   3.425   1.975  0.0000  0.0000  0.0000
    11DUM    Ar 4032   4.025   3.575   1.975  0.0000  0.0000  0.0000
    11DUM    Ar 4033  -0.175   3.725   1.825  0.0000  0.0000  0.0000
    11DUM    Ar 4034  -0.025   3.875   1.825  0.0000  0.0000  0.0000
    11DUM    Ar 4035  -0.025   3.725   1.975  0.0000  0.0000  0.0000
    11DUM    Ar 4036  -0.175   3.875   1.975  0.0000  0.0000  0.0000
    11DUM    Ar 4037   0.125   3.725   1.825  0.0000  0.0000  0.0000
    11DUM    Ar 4038   0.275   3.875   1.825  0.0000  0.0000  0.0000
    11DUM    Ar 4039   0.275   3.725   1.975  0.0000  0.0000  0.0000
    11DUM    Ar 4040   0.125   3.875   1.975  0.0000  0.0000  0.0000
    11DUM    Ar 4041   0.425   3.725   1.825  0.0000  0.0000  0.0000
    11DUM    Ar 4042   0.575   3.875   1.825  0.0000  0.0000  0.0000
    11DUM    Ar 4043   0.575   3.725   1.975  0.0000  0.0000  0.0000
    11DUM    Ar 4044   0.425   3.875   1.975  0.0000  0.0000  0.0000
    11DUM    Ar 4045   0.725   3.725   1.825  0.0000  0.0000  0.0000
    11DUM    Ar 4046   0.875   3.875   1.825  0.0000  0.0000  0.0000
    11DUM    Ar 4047   0.875   3.725   1.975  0.0000  0.0000  0.0000
    11DUM    Ar 4048   0.725   3.875   1.975  0.0000  0.0000  0.0000
    11DUM    Ar 4049   1.025   3.725   1.825  0.0000  0.0000  0.0000
    11DUM    Ar 4050   1.175   3.875   1.825  0.0000  0.0000  0.0000
    11DUM    Ar 4051   1.175   3.725   1.975  0.0000  0.0000  0.0000
    11DUM    Ar 4052   1.025   3.875   1.975  0.0000  0.0000  0.0000
    11DUM    Ar 4053   1.325   3.725   1.825  0.0000  0.0000  0.0000
    11DUM    Ar 4054   1.475   3.875   1.825  0.0000  0.0000  0.0000
    11DUM    Ar 4055   1.475   3.725   1.975  0.0000  0.0000  0.0000
    11DUM    Ar 4056   1.325   3.875   1.975  0.0000  0.0000  0.0000
    11DUM    Ar 4057   1.625   3.725   1.825  0.0000  0.0000  0.0000
    11DUM    Ar 4058   1.775   3.875   1.825  0.0000  0.0000  0.0000
    11DUM    Ar 4059   1.775   3.725   1.975  0.0000  0.0000  0.0000
    11DUM    Ar 4060   1.625   3.875   1.975  0.0000  0.0000  0.0000
    11DUM    Ar 4061   1.925   3.725   1.825  0.0000  0.0000  0.0000
    11DUM    Ar 4062   2.075   3.875   1.825  0.0000  0.0000  0.0000
    11DUM    Ar 4063   2.075   3.725   1.975  0.0000  0.0000  0.0000
    11DUM    Ar 4064   1.925   3.875   1.975  0.0000  0.0000  0.0000
    11DUM    Ar 4065   2.225   3.725   1.825  0.0000  0.0000  0.0000
    11DUM    Ar 4066   2.375   3.875   1.825  0.0000  0.0000  0.0000
    11DUM    Ar 4067   2.375   3.725   1.975  0.0000  0.0000  0.0000
    11DUM    Ar 4068   2.225   3.875   1.975  0.0000  0.0000  0.0000
    11DUM    Ar 4069   2.525   3.725   1.825  0.0000  0.0000  0.0000
    11DUM    Ar 4070   2.675   3.875   1.825  0.0000  0.0000  0.0000
    11DUM    Ar 4071   2.675   3.725   1.975  0.0000  0.0000  0.0000
    11DUM    Ar 4072   2.525   3.875   1.975  0.0000  0.0000  0.0000
    11DUM    Ar 4073   2.825   3.725   1.825  0.0000  0.0000  0.0000
    11DUM    Ar 4074   2.975   3.875   1.825  0.0000  0.0000  0.0000
    11DUM    Ar 4075   2.975   3.725   1.975  0.0000  0.0000  0.0000
    11DUM    Ar 4076   2.825   3.875   1.975  0.0000  0.0000  0.0000
    11DUM    Ar 4077   3.125   3.725   1.825  0.0000  0.0000  0.0000
    11DUM    Ar 4078   3.275   3.875   1.825  0.0000  0.0000  0.0000
    11DUM    Ar 4079   3.275   3.725   1.975  0.0000  0.0000  0.0000
    11DUM    Ar 4080   3.125   3.875   1.975  0.0000  0.0000  0.0000
    11DUM    Ar 4081   3.425   3.725   1.825  0.0000  0.0000  0.0000
    11DUM    Ar 4082   3.575   3.875   1.825  0.0000  0.0000  0.0000
    11DUM    Ar 4083   3.575   3.725   1.975  0.0000  0.0000  0.0000
    11DUM    Ar 4084   3.425   3.875   1.975  0.0000  0.0000  0.0000
    11DUM    Ar 4085   3.725   3.725   1.825  0.0000  0.0000  0.0000
    11DUM    Ar 4086   3.875   3.875   1.825  0.0000  0.0000  0.0000
    11DUM    Ar 4087   3.875   3.725   1.975  0.0000  0.0000  0.0000
    11DUM    Ar 4088   3.725   3.875   1.975  0.0000  0.0000  0.0000
    11DUM    Ar 4089   4.025   3.725   1.825  0.0000  0.0000  0.0000
    11DUM    Ar 4090   4.175   3.875   1.825  0.0000  0.0000  0.0000
    11DUM    Ar 4091   4.175   3.725   1.975  0.0000  0.0000  0.0000
    11DUM    Ar 4092   4.025   3.875   1.975  0.0000  0.0000  0.0000
    11DUM    Ar 4093  -0.175   4.025   1.825  0.0000  0.0000  0.0000
    11DUM    Ar 4094  -0.025   4.175   1.825  0.0000  0.0000  0.0000
    11DUM    Ar 4095  -0.025   4.025   1.975  0.0000  0.0000  0.0000
    11DUM    Ar 4096  -0.175   4.175   1.975  0.0000  0.0000  0.0000
    11DUM    Ar 4097   0.125   4.025   1.825  0.0000  0.0000  0.0000
    11DUM    Ar 4098   0.275   4.175   1.825  0.0000  0.0000  0.0000
    11DUM    Ar 4099   0.275   4.025   1.975  0.0000  0.0000  0.0000
    11DUM    Ar 4100   0.125   4.175   1.975  0.0000  0.0000  0.0000
    11DUM    Ar 4101   0.425   4.025   1.825  0.0000  0.0000  0.0000
    11DUM    Ar 4102   0.575   4.175   1.825  0.0000  0.0000  0.0000
    11DUM    Ar 4103   0.575   4.025   1.975  0.0000  0.0000  0.0000
    11DUM    Ar 4104   0.425   4.175   1.975  0.0000  0.0000  0.0000
    11DUM    Ar 4105   0.725   4.025   1.825  0.0000  0.0000  0.0000
    11DUM    Ar 4106   0.875   4.175   1.825  0.0000  0.0000  0.0000
    11DUM    Ar 4107   0.875   4.025   1.975  0.0000  0.0000  0.0000
    11DUM    Ar 4108   0.725   4.175   1.975  0.0000  0.0000  0.0000
    11DUM    Ar 4109   1.025   4.025   1.825  0.0000  0.0000  0.0000
    11DUM    Ar 4110   1.175   4.175   1.825  0.0000  0.0000  0.0000
    11DUM    Ar 4111   1.175   4.025   1.975  0.0000  0.0000  0.0000
    11DUM    Ar 4112   1.025   4.175   1.975  0.0000  0.0000  0.0000
    11DUM    Ar 4113   1.325   4.025   1.825  0.0000  0.0000  0.0000
    11DUM    Ar 4114   1.475   4.175   1.825  0.0000  0.0000  0.0000
    11DUM    Ar 4115   1.475   4.025   1.975  0.0000  0.0000  0.0000
    11DUM    Ar 4116   1.325   4.175   1.975  0.0000  0.0000  0.0000
    11DUM    Ar 4117   1.625   4.025   1.825  0.0000  0.0000  0.0000
    11DUM    Ar 4118   1.775   4.175   1.825  0.0000  0.0000  0.0000
    11DUM    Ar 4119   1.775   4.025   1.975  0.0000  0.0000  0.0000
    11DUM    Ar 4120   1.625   4.175   1.975  0.0000  0.0000  0.0000
    11DUM    Ar 4121   1.925   4.025   1.825  0.0000  0.0000  0.0000
    11DUM    Ar 4122   2.075   4.175   1.825  0.0000  0.0000  0.0000
    11DUM    Ar 4123   2.075   4.025   1.975  0.0000  0.0000  0.0000
    11DUM    Ar 4124   1.925   4.175   1.975  0.0000  0.0000  0.0000
    11DUM    Ar 4125   2.225   4.025   1.825  0.0000  0.0000  0.0000
    11DUM    Ar 4126   2.375   4.175   1.825  0.0000  0.0000  0.0000
    11DUM    Ar 4127   2.375   4.025   1.975  0.0000  0.0000  0.0000
    11DUM    Ar 4128   2.225   4.175   1.975  0.0000  0.0000  0.0000
    11DUM    Ar 4129   2.525   4.025   1.825  0.0000  0.0000  0.0000
    11DUM    Ar 4130   2.675   4.175   1.825  0.0000  0.0000  0.0000
    11DUM    Ar 4131   2.675   4.025   1.975  0.0000  0.0000  0.0000
    11DUM    Ar 4132   2.525   4.175   1.975  0.0000  0.0000  0.0000
    11DUM    Ar 4133   2.825   4.025   1.825  0.0000  0.0000  0.0000
    11DUM    Ar 4134   2.975   4.175   1.825  0.0000  0.0000  0.0000
    11DUM    Ar 4135   2.975   4.025   1.975  0.0000  0.0000  0.0000
    11DUM    Ar 4136   2.825   4.175   1.975  0.0000  0.0000  0.0000
    11DUM    Ar 4137   3.125   4.025   1.825  0.0000  0.0000  0.0000
    11DUM    Ar 4138   3.275   4.175   1.825  0.0000  0.0000  0.0000
    11DUM    Ar 4139   3.275   4.025   1.975  0.0000  0.0000  0.0000
    11DUM    Ar 4140   3.125   4.175   1.975  0.0000  0.0000  0.0000
    11DUM    Ar 4141   3.425   4.025   1.825  0.0000  0.0000  0.0000
    11DUM    Ar 4142   3.575   4.175   1.825  0.0000  0.0000  0.0000
    11DUM    Ar 4143   3.575   4.025   1.975  0.0000  0.0000  0.0000
    11DUM    Ar 4144   3.425   4.175   1.975  0.0000  0.0000  0.0000
    11DUM    Ar 4145   3.725   4.025   1.825  0.0000  0.0000  0.0000
    11DUM    Ar 4146   3.875   4.175   1.825  0.0000  0.0000  0.0000
    11DUM    Ar 4147   3.875   4.025   1.975  0.0000  0.0000  0.0000
    11DUM    Ar 4148   3.725   4.175   1.975  0.0000  0.0000  0.0000
    11DUM    Ar 4149   4.025   4.025   1.825  0.0000  0.0000  0.0000
    11DUM    Ar 4150   4.175   4.175   1.825  0.0000  0.0000  0.0000
    11DUM    Ar 4151   4.175   4.025   1.975  0.0000  0.0000  0.0000
    11DUM    Ar 4152   4.025   4.175   1.975  0.0000  0.0000  0.0000
    11DUM    Ar 4153  -0.175  -0.175   2.125  0.0000  0.0000  0.0000
    11DUM    Ar 4154  -0.025  -0.025   2.125  0.0000  0.0000  0.0000
    11DUM    Ar 4155  -0.025  -0.175   2.275  0.0000  0.0000  0.0000
    11DUM    Ar 4156  -0.175  -0.025   2.275  0.0000  0.0000  0.0000
    11DUM    Ar 4157   0.125  -0.175   2.125  0.0000  0.0000  0.0000
    11DUM    Ar 4158   0.275  -0.025   2.125  0.0000  0.0000  0.0000
    11DUM    Ar 4159   0.275  -0.175   2.275  0.0000  0.0000  0.0000
    11DUM    Ar 4160   0.125  -0.025   2.275  0.0000  0.0000  0.0000
    11DUM    Ar 4161   0.425  -0.175   2.125  0.0000  0.0000  0.0000
    11DUM    Ar 4162   0.575  -0.025   2.125  0.0000  0.0000  0.0000
    11DUM    Ar 4163   0.575  -0.175   2.275  0.0000  0.0000  0.0000
    11DUM    Ar 4164   0.425  -0.025   2.275  0.0000  0.0000  0.0000
    11DUM    Ar 4165   0.725  -0.175   2.125  0.0000  0.0000  0.0000
    11DUM    Ar 4166   0.875  -0.025   2.125  0.0000  0.0000  0.0000
    11DUM    Ar 4167   0.875  -0.175   2.275  0.0000  0.0000  0.0000
    11DUM    Ar 4168   0.725  -0.025   2.275  0.0000  0.0000  0.0000
    11DUM    Ar 4169   1.025  -0.175   2.125  0.0000  0.0000  0.0000
    11DUM    Ar 4170   1.175  -0.025   2.125  0.0000  0.0000  0.0000
    11DUM    Ar 4171   1.175  -0.175   2.275  0.0000  0.0000  0.0000
    11DUM    Ar 4172   1.025  -0.025   2.275  0.0000  0.0000  0.0000
    11DUM    Ar 4173   1.325  -0.175   2.125  0.0000  0.0000  0.0000
    11DUM    Ar 4174   1.475  -0.025   2.125  0.0000  0.0000  0.0000
    11DUM    Ar 4175   1.475  -0.175   2.275  0.0000  0.0000  0.0000
    11DUM    Ar 4176   1.325  -0.025   2.275  0.0000  0.0000  0.0000
    11DUM    Ar 4177   1.625  -0.175   2.125  0.0000  0.0000  0.0000
    11DUM    Ar 4178   1.775  -0.025   2.125  0.0000  0.0000  0.0000
    11DUM    Ar 4179   1.775  -0.175   2.275  0.0000  0.0000  0.0000
    11DUM    Ar 4180   1.625  -0.025   2.275  0.0000  0.0000  0.0000
    11DUM    Ar 4181   1.925  -0.175   2.125  0.0000  0.0000  0.0000
    11DUM    Ar 4182   2.075  -0.025   2.125  0.0000  0.0000  0.0000
    11DUM    Ar 4183   2.075  -0.175   2.275  0.0000  0.0000  0.0000
    11DUM    Ar 4184   1.925  -0.025   2.275  0.0000  0.0000  0.0000
    11DUM    Ar 4185   2.225  -0.175   2.125  0.0000  0.0000  0.0000
    11DUM    Ar 4186   2.375  -0.025   2.125  0.0000  0.0000  0.0000
    11DUM    Ar 4187   2.375  -0.175   2.275  0.0000  0.0000  0.0000
    11DUM    Ar 4188   2.225  -0.025   2.275  0.0000  0.0000  0.0000
    11DUM    Ar 4189   2.525  -0.175   2.125  0.0000  0.0000  0.0000
    11DUM    Ar 4190   2.675  -0.025   2.125  0.0000  0.0000  0.0000
    11DUM    Ar 4191   2.675  -0.175   2.275  0.0000  0.0000  0.0000
    11DUM    Ar 4192   2.525  -0.025   2.275  0.0000  0.0000  0.0000
    11DUM    Ar 4193   2.825  -0.175   2.125  0.0000  0.0000  0.0000
    11DUM    Ar 4194   2.975  -0.025   2.125  0.0000  0.0000  0.0000
    11DUM    Ar 4195   2.975  -0.175   2.275  0.0000  0.0000  0.0000
    11DUM    Ar 4196   2.825  -0.025   2.275  0.0000  0.0000  0.0000
    11DUM    Ar 4197   3.125  -0.175   2.125  0.0000  0.0000  0.0000
    11DUM    Ar 4198   3.275  -0.025   2.125  0.0000  0.0000  0.0000
    11DUM    Ar 4199   3.275  -0.175   2.275  0.0000  0.0000  0.0000
    11DUM    Ar 4200   3.125  -0.025   2.275  0.0000  0.0000  0.0000
    11DUM    Ar 4201   3.425  -0.175   2.125  0.0000  0.0000  0.0000
    11DUM    Ar 4202   3.575  -0.025   2.125  0.0000  0.0000  0.0000
    11DUM    Ar 4203   3.575  -0.175   2.275  0.0000  0.0000  0.0000
    11DUM    Ar 4204   3.425  -0.025   2.275  0.0000  0.0000  0.0000
    11DUM    Ar 4205   3.725  -0.175   2.125  0.0000  0.0000  0.0000
    11DUM    Ar 4206   3.875  -0.025   2.125  0.0000  0.0000  0.0000
    11DUM    Ar 4207   3.875  -0.175   2.275  0.0000  0.0000  0.0000
    11DUM    Ar 4208   3.725  -0.025   2.275  0.0000  0.0000  0.0000
    11DUM    Ar 4209   4.025  -0.175   2.125  0.0000  0.0000  0.0000
    11DUM    Ar 4210   4.175  -0.025   2.125  0.0000  0.0000  0.0000
    11DUM    Ar 4211   4.175  -0.175   2.275  0.0000  0.0000  0.0000
    11DUM    Ar 4212   4.025  -0.025   2.275  0.0000  0.0000  0.0000
    11DUM    Ar 4213  -0.175   0.125   2.125  0.0000  0.0000  0.0000
    11DUM    Ar 4214  -0.025   0.275   2.125  0.0000  0.0000  0.0000
    11DUM    Ar 4215  -0.025   0.125   2.275  0.0000  0.0000  0.0000
    11DUM    Ar 4216  -0.175   0.275   2.275  0.0000  0.0000  0.0000
    11DUM    Ar 4217   0.125   0.125   2.125  0.0000  0.0000  0.0000
    11DUM    Ar 4218   0.275   0.275   2.125  0.0000  0.0000  0.0000
    11DUM    Ar 4219   0.275   0.125   2.275  0.0000  0.0000  0.0000
    11DUM    Ar 4220   0.125   0.275   2.275  0.0000  0.0000  0.0000
    11DUM    Ar 4221   0.425   0.125   2.125  0.0000  0.0000  0.0000
    11DUM    Ar 4222   0.575   0.275   2.125  0.0000  0.0000  0.0000
    11DUM    Ar 4223   0.575   0.125   2.275  0.0000  0.0000  0.0000
    11DUM    Ar 4224   0.425   0.275   2.275  0.0000  0.0000  0.0000
    11DUM    Ar 4225   0.725   0.125   2.125  0.0000  0.0000  0.0000
    11DUM    Ar 4226   0.875   0.275   2.125  0.0000  0.0000  0.0000
    11DUM    Ar 4227   0.875   0.125   2.275  0.0000  0.0000  0.0000
    11DUM    Ar 4228   0.725   0.275   2.275  0.0000  0.0000  0.0000
    11DUM    Ar 4229   1.025   0.125   2.125  0.0000  0.0000  0.0000
    11DUM    Ar 4230   1.175   0.275   2.125  0.0000  0.0000  0.0000
    11DUM    Ar 4231   1.175   0.125   2.275  0.0000  0.0000  0.0000
    11DUM    Ar 4232   1.025   0.275   2.275  0.0000  0.0000  0.0000
    11DUM    Ar 4233   1.325   0.125   2.125  0.0000  0.0000  0.0000
    11DUM    Ar 4234   1.475   0.275   2.125  0.0000  0.0000  0.0000
    11DUM    Ar 4235   1.475   0.125   2.275  0.0000  0.0000  0.0000
    11DUM    Ar 4236   1.325   0.275   2.275  0.0000  0.0000  0.0000
    11DUM    Ar 4237   1.625   0.125   2.125  0.0000  0.0000  0.0000
    11DUM    Ar 4238   1.775   0.275   2.125  0.0000  0.0000  0.0000
    11DUM    Ar 4239   1.775   0.125   2.275  0.0000  0.0000  0.0000
    11DUM    Ar 4240   1.625   0.275   2.275  0.0000  0.0000  0.0000
    11DUM    Ar 4241   1.925   0.125   2.125  0.0000  0.0000  0.0000
    11DUM    Ar 4242   2.075   0.275   2.125  0.0000  0.0000  0.0000
    11DUM    Ar 4243   2.075   0.125   2.275  0.0000  0.0000  0.0000
    11DUM    Ar 4244   1.925   0.275   2.275  0.0000  0.0000  0.0000
    11DUM    Ar 4245   2.225   0.125   2.125  0.0000  0.0000  0.0000
    11DUM    Ar 4246   2.375   0.275   2.125  0.0000  0.0000  0.0000
    11DUM    Ar 4247   2.375   0.125   2.275  0.0000  0.0000  0.0000
    11DUM    Ar 4248   2.225   0.275   2.275  0.0000  0.0000  0.0000
    11DUM    Ar 4249   2.525   0.125   2.125  0.0000  0.0000  0.0000
    11DUM    Ar 4250   2.675   0.275   2.125  0.0000  0.0000  0.0000
    11DUM    Ar 4251   2.675   0.125   2.275  0.0000  0.0000  0.0000
    11DUM    Ar 4252   2.525   0.275   2.275  0.0000  0.0000  0.0000
    11DUM    Ar 4253   2.825   0.125   2.125  0.0000  0.0000  0.0000
    11DUM    Ar 4254   2.975   0.275   2.125  0.0000  0.0000  0.0000
    11DUM    Ar 4255   2.975   0.125   2.275  0.0000  0.0000  0.0000
    11DUM    Ar 4256   2.825   0.275   2.275  0.0000  0.0000  0.0000
    11DUM    Ar 4257   3.125   0.125   2.125  0.0000  0.0000  0.0000
    11DUM    Ar 4258   3.275   0.275   2.125  0.0000  0.0000  0.0000
    11DUM    Ar 4259   3.275   0.125   2.275  0.0000  0.0000  0.0000
    11DUM    Ar 4260   3.125   0.275   2.275  0.0000  0.0000  0.0000
    11DUM    Ar 4261   3.425   0.125   2.125  0.0000  0.0000  0.0000
    11DUM    Ar 4262   3.575   0.275   2.125  0.0000  0.0000  0.0000
    11DUM    Ar 4263   3.575   0.125   2.275  0.0000  0.0000  0.0000
    11DUM    Ar 4264   3.425   0.275   2.275  0.0000  0.0000  0.0000
    11DUM    Ar 4265   3.725   0.125   2.125  0.0000  0.0000  0.0000
    11DUM    Ar 4266   3.875   0.275   2.125  0.0000  0.0000  0.0000
    11DUM    Ar 4267   3.875   0.125   2.275  0.0000  0.0000  0.0000
    11DUM    Ar 4268   3.725   0.275   2.275  0.0000  0.0000  0.0000
    11DUM    Ar 4269   4.025   0.125   2.125  0.0000  0.0000  0.0000
    11DUM    Ar 4270   4.175   0.275   2.125  0.0000  0.0000  0.0000
    11DUM    Ar 4271   4.175   0.125   2.275  0.0000  0.0000  0.0000
    11DUM    Ar 4272   4.025   0.275   2.275  0.0000  0.0000  0.0000
    11DUM    Ar 4273  -0.175   0.425   2.125  0.0000  0.0000  0.0000
    11DUM    Ar 4274  -0.025   0.575   2.125  0.0000  0.0000  0.0000
    11DUM    Ar 4275  -0.025   0.425   2.275  0.0000  0.0000  0.0000
    11DUM    Ar 4276  -0.175   0.575   2.275  0.0000  0.0000  0.0000
    11DUM    Ar 4277   0.125   0.425   2.125  0.0000  0.0000  0.0000
    11DUM    Ar 4278   0.275   0.575   2.125  0.0000  0.0000  0.0000
    11DUM    Ar 4279   0.275   0.425   2.275  0.0000  0.0000  0.0000
    11DUM    Ar 4280   0.125   0.575   2.275  0.0000  0.0000  0.0000
    11DUM    Ar 4281   0.425   0.425   2.125  0.0000  0.0000  0.0000
    11DUM    Ar 4282   0.575   0.425   2.275  0.0000  0.0000  0.0000
    11DUM    Ar 4283   0.425   0.575   2.275  0.0000  0.0000  0.0000
    11DUM    Ar 4284   0.725   0.425   2.125  0.0000  0.0000  0.0000
    11DUM    Ar 4285   1.325   0.425   2.125  0.0000  0.0000  0.0000
    11DUM    Ar 4286   1.475   0.575   2.125  0.0000  0.0000  0.0000
    11DUM    Ar 4287   1.475   0.425   2.275  0.0000  0.0000  0.0000
    11DUM    Ar 4288   1.625   0.425   2.125  0.0000  0.0000  0.0000
    11DUM    Ar 4289   1.775   0.575   2.125  0.0000  0.0000  0.0000
    11DUM    Ar 4290   1.775   0.425   2.275  0.0000  0.0000  0.0000
    11DUM    Ar 4291   1.625   0.575   2.275  0.0000  0.0000  0.0000
    11DUM    Ar 4292   1.925   0.425   2.125  0.0000  0.0000  0.0000
    11DUM    Ar 4293   2.075   0.575   2.125  0.0000  0.0000  0.0000
    11DUM    Ar 4294   2.075   0.425   2.275  0.0000  0.0000  0.0000
    11DUM    Ar 4295   1.925   0.575   2.275  0.0000  0.0000  0.0000
    11DUM    Ar 4296   2.225   0.425   2.125  0.0000  0.0000  0.0000
    11DUM    Ar 4297   2.375   0.575   2.125  0.0000  0.0000  0.0000
    11DUM    Ar 4298   2.375   0.425   2.275  0.0000  0.0000  0.0000
    11DUM    Ar 4299   2.225   0.575   2.275  0.0000  0.0000  0.0000
    11DUM    Ar 4300   2.525   0.425   2.125  0.0000  0.0000  0.0000
    11DUM    Ar 4301   2.675   0.425   2.275  0.0000  0.0000  0.0000
    11DUM    Ar 4302   2.525   0.575   2.275  0.0000  0.0000  0.0000
    11DUM    Ar 4303   3.275   0.425   2.275  0.0000  0.0000  0.0000
    11DUM    Ar 4304   3.425   0.425   2.125  0.0000  0.0000  0.0000
    11DUM    Ar 4305   3.575   0.575   2.125  0.0000  0.0000  0.0000
    11DUM    Ar 4306   3.575   0.425   2.275  0.0000  0.0000  0.0000
    11DUM    Ar 4307   3.725   0.425   2.125  0.0000  0.0000  0.0000
    11DUM    Ar 4308   3.875   0.575   2.125  0.0000  0.0000  0.0000
    11DUM    Ar 4309   3.875   0.425   2.275  0.0000  0.0000  0.0000
    11DUM    Ar 4310   3.725   0.575   2.275  0.0000  0.0000  0.0000
    11DUM    Ar 4311   4.025   0.425   2.125  0.0000  0.0000  0.0000
    11DUM    Ar 4312   4.175   0.575   2.125  0.0000  0.0000  0.0000
    11DUM    Ar 4313   4.175   0.425   2.275  0.0000  0.0000  0.0000
    11DUM    Ar 4314   4.025   0.575   2.275  0.0000  0.0000  0.0000
    11DUM    Ar 4315  -0.175   0.725   2.125  0.0000  0.0000  0.0000
    11DUM    Ar 4316  -0.025   0.875   2.125  0.0000  0.0000  0.0000
    11DUM    Ar 4317  -0.025   0.725   2.275  0.0000  0.0000  0.0000
    11DUM    Ar 4318  -0.175   0.875   2.275  0.0000  0.0000  0.0000
    11DUM    Ar 4319   0.125   0.725   2.125  0.0000  0.0000  0.0000
    11DUM    Ar 4320   0.275   0.875   2.125  0.0000  0.0000  0.0000
    11DUM    Ar 4321   0.275   0.725   2.275  0.0000  0.0000  0.0000
    11DUM    Ar 4322   0.125   0.875   2.275  0.0000  0.0000  0.0000
    11DUM    Ar 4323   0.425   0.725   2.125  0.0000  0.0000  0.0000
    11DUM    Ar 4324   1.625   0.725   2.125  0.0000  0.0000  0.0000
    11DUM    Ar 4325   1.775   0.875   2.125  0.0000  0.0000  0.0000
    11DUM    Ar 4326   1.775   0.725   2.275  0.0000  0.0000  0.0000
    11DUM    Ar 4327   1.625   0.875   2.275  0.0000  0.0000  0.0000
    11DUM    Ar 4328   1.925   0.725   2.125  0.0000  0.0000  0.0000
    11DUM    Ar 4329   2.075   0.875   2.125  0.0000  0.0000  0.0000
    11DUM    Ar 4330   2.075   0.725   2.275  0.0000  0.0000  0.0000
    11DUM    Ar 4331   1.925   0.875   2.275  0.0000  0.0000  0.0000
    11DUM    Ar 4332   2.225   0.725   2.125  0.0000  0.0000  0.0000
    11DUM    Ar 4333   2.375   0.875   2.125  0.0000  0.0000  0.0000
    11DUM    Ar 4334   2.375   0.725   2.275  0.0000  0.0000  0.0000
    11DUM    Ar 4335   2.225   0.875   2.275  0.0000  0.0000  0.0000
    11DUM    Ar 4336   3.575   0.725   2.275  0.0000  0.0000  0.0000
    11DUM    Ar 4337   3.725   0.725   2.125  0.0000  0.0000  0.0000
    11DUM    Ar 4338   3.875   0.875   2.125  0.0000  0.0000  0.0000
    11DUM    Ar 4339   3.875   0.725   2.275  0.0000  0.0000  0.0000
    11DUM    Ar 4340   3.725   0.875   2.275  0.0000  0.0000  0.0000
    11DUM    Ar 4341   4.025   0.725   2.125  0.0000  0.0000  0.0000
    11DUM    Ar 4342   4.175   0.875   2.125  0.0000  0.0000  0.0000
    11DUM    Ar 4343   4.175   0.725   2.275  0.0000  0.0000  0.0000
    11DUM    Ar 4344   4.025   0.875   2.275  0.0000  0.0000  0.0000
    11DUM    Ar 4345  -0.175   1.025   2.125  0.0000  0.0000  0.0000
    11DUM    Ar 4346  -0.025   1.175   2.125  0.0000  0.0000  0.0000
    11DUM    Ar 4347  -0.025   1.025   2.275  0.0000  0.0000  0.0000
    11DUM    Ar 4348  -0.175   1.175   2.275  0.0000  0.0000  0.0000
    11DUM    Ar 4349   0.125   1.025   2.125  0.0000  0.0000  0.0000
    11DUM    Ar 4350   0.275   1.175   2.125  0.0000  0.0000  0.0000
    11DUM    Ar 4351   0.275   1.025   2.275  0.0000  0.0000  0.0000
    11DUM    Ar 4352   0.125   1.175   2.275  0.0000  0.0000  0.0000
    11DUM    Ar 4353   1.625   1.025   2.125  0.0000  0.0000  0.0000
    11DUM    Ar 4354   1.775   1.175   2.125  0.0000  0.0000  0.0000
    11DUM    Ar 4355   1.775   1.025   2.275  0.0000  0.0000  0.0000
    11DUM    Ar 4356   1.625   1.175   2.275  0.0000  0.0000  0.0000
    11DUM    Ar 4357   1.925   1.025   2.125  0.0000  0.0000  0.0000
    11DUM    Ar 4358   2.075   1.175   2.125  0.0000  0.0000  0.0000
    11DUM    Ar 4359   2.075   1.025   2.275  0.0000  0.0000  0.0000
    11DUM    Ar 4360   1.925   1.175   2.275  0.0000  0.0000  0.0000
    11DUM    Ar 4361   2.225   1.025   2.125  0.0000  0.0000  0.0000
    11DUM    Ar 4362   2.375   1.175   2.125  0.0000  0.0000  0.0000
    11DUM    Ar 4363   2.375   1.025   2.275  0.0000  0.0000  0.0000
    11DUM    Ar 4364   2.225   1.175   2.275  0.0000  0.0000  0.0000
    11DUM    Ar 4365   3.725   1.025   2.125  0.0000  0.0000  0.0000
    11DUM    Ar 4366   3.875   1.175   2.125  0.0000  0.0000  0.0000
    11DUM    Ar 4367   3.875   1.025   2.275  0.0000  0.0000  0.0000
    11DUM    Ar 4368   3.725   1.175   2.275  0.0000  0.0000  0.0000
    11DUM    Ar 4369   4.025   1.025   2.125  0.0000  0.0000  0.0000
    11DUM    Ar 4370   4.175   1.175   2.125  0.0000  0.0000  0.0000
    11DUM    Ar 4371   4.175   1.025   2.275  0.0000  0.0000  0.0000
    11DUM    Ar 4372   4.025   1.175   2.275  0.0000  0.0000  0.0000
    11DUM    Ar 4373  -0.175   1.325   2.125  0.0000  0.0000  0.0000
    11DUM    Ar 4374  -0.025   1.475   2.125  0.0000  0.0000  0.0000
    11DUM    Ar 4375  -0.025   1.325   2.275  0.0000  0.0000  0.0000
    11DUM    Ar 4376  -0.175   1.475   2.275  0.0000  0.0000  0.0000
    11DUM    Ar 4377   0.125   1.325   2.125  0.0000  0.0000  0.0000
    11DUM    Ar 4378   0.275   1.475   2.125  0.0000  0.0000  0.0000
    11DUM    Ar 4379   0.275   1.325   2.275  0.0000  0.0000  0.0000
    11DUM    Ar 4380   0.125   1.475   2.275  0.0000  0.0000  0.0000
    11DUM    Ar 4381   0.425   1.325   2.125  0.0000  0.0000  0.0000
    11DUM    Ar 4382   0.575   1.475   2.125  0.0000  0.0000  0.0000
    11DUM    Ar 4383   0.425   1.475   2.275  0.0000  0.0000  0.0000
    11DUM    Ar 4384   1.475   1.475   2.125  0.0000  0.0000  0.0000
    11DUM    Ar 4385   1.625   1.325   2.125  0.0000  0.0000  0.0000
    11DUM    Ar 4386   1.775   1.475   2.125  0.0000  0.0000  0.0000
    11DUM    Ar 4387   1.775   1.325   2.275  0.0000  0.0000  0.0000
    11DUM    Ar 4388   1.625   1.475   2.275  0.0000  0.0000  0.0000
    11DUM    Ar 4389   1.925   1.325   2.125  0.0000  0.0000  0.0000
    11DUM    Ar 4390   2.075   1.475   2.125  0.0000  0.0000  0.0000
    11DUM    Ar 4391   2.075   1.325   2.275  0.0000  0.0000  0.0000
    11DUM    Ar 4392   1.925   1.475   2.275  0.0000  0.0000  0.0000
    11DUM    Ar 4393   2.225   1.325   2.125  0.0000  0.0000  0.0000
    11DUM    Ar 4394   2.375   1.475   2.125  0.0000  0.0000  0.0000
    11DUM    Ar 4395   2.375   1.325   2.275  0.0000  0.0000  0.0000
    11DUM    Ar 4396   2.225   1.475   2.275  0.0000  0.0000  0.0000
    11DUM    Ar 4397   2.525   1.475   2.275  0.0000  0.0000  0.0000
    11DUM    Ar 4398   3.575   1.475   2.125  0.0000  0.0000  0.0000
    11DUM    Ar 4399   3.575   1.325   2.275  0.0000  0.0000  0.0000
    11DUM    Ar 4400   3.425   1.475   2.275  0.0000  0.0000  0.0000
    11DUM    Ar 4401   3.725   1.325   2.125  0.0000  0.0000  0.0000
    11DUM    Ar 4402   3.875   1.475   2.125  0.0000  0.0000  0.0000
    11DUM    Ar 4403   3.875   1.325   2.275  0.0000  0.0000  0.0000
    11DUM    Ar 4404   3.725   1.475   2.275  0.0000  0.0000  0.0000
    11DUM    Ar 4405   4.025   1.325   2.125  0.0000  0.0000  0.0000
    11DUM    Ar 4406   4.175   1.475   2.125  0.0000  0.0000  0.0000
    11DUM    Ar 4407   4.175   1.325   2.275  0.0000  0.0000  0.0000
    11DUM    Ar 4408   4.025   1.475   2.275  0.0000  0.0000  0.0000
    11DUM    Ar 4409  -0.175   1.625   2.125  0.0000  0.0000  0.0000
    11DUM    Ar 4410  -0.025   1.775   2.125  0.0000  0.0000  0.0000
    11DUM    Ar 4411  -0.025   1.625   2.275  0.0000  0.0000  0.0000
    11DUM    Ar 4412  -0.175   1.775   2.275  0.0000  0.0000  0.0000
    11DUM    Ar 4413   0.125   1.625   2.125  0.0000  0.0000  0.0000
    11DUM    Ar 4414   0.275   1.775   2.125  0.0000  0.0000  0.0000
    11DUM    Ar 4415   0.275   1.625   2.275  0.0000  0.0000  0.0000
    11DUM    Ar 4416   0.125   1.775   2.275  0.0000  0.0000  0.0000
    11DUM    Ar 4417   0.425   1.625   2.125  0.0000  0.0000  0.0000
    11DUM    Ar 4418   0.575   1.775   2.125  0.0000  0.0000  0.0000
    11DUM    Ar 4419   0.575   1.625   2.275  0.0000  0.0000  0.0000
    11DUM    Ar 4420   0.425   1.775   2.275  0.0000  0.0000  0.0000
    11DUM    Ar 4421   0.725   1.625   2.125  0.0000  0.0000  0.0000
    11DUM    Ar 4422   0.875   1.775   2.125  0.0000  0.0000  0.0000
    11DUM    Ar 4423   0.875   1.625   2.275  0.0000  0.0000  0.0000
    11DUM    Ar 4424   0.725   1.775   2.275  0.0000  0.0000  0.0000
    11DUM    Ar 4425   1.025   1.625   2.125  0.0000  0.0000  0.0000
    11DUM    Ar 4426   1.175   1.775   2.125  0.0000  0.0000  0.0000
    11DUM    Ar 4427   1.175   1.625   2.275  0.0000  0.0000  0.0000
    11DUM    Ar 4428   1.025   1.775   2.275  0.0000  0.0000  0.0000
    11DUM    Ar 4429   1.325   1.625   2.125  0.0000  0.0000  0.0000
    11DUM    Ar 4430   1.475   1.775   2.125  0.0000  0.0000  0.0000
    11DUM    Ar 4431   1.475   1.625   2.275  0.0000  0.0000  0.0000
    11DUM    Ar 4432   1.325   1.775   2.275  0.0000  0.0000  0.0000
    11DUM    Ar 4433   1.625   1.625   2.125  0.0000  0.0000  0.0000
    11DUM    Ar 4434   1.775   1.775   2.125  0.0000  0.0000  0.0000
    11DUM    Ar 4435   1.775   1.625   2.275  0.0000  0.0000  0.0000
    11DUM    Ar 4436   1.625   1.775   2.275  0.0000  0.0000  0.0000
    11DUM    Ar 4437   1.925   1.625   2.125  0.0000  0.0000  0.0000
    11DUM    Ar 4438   2.075   1.775   2.125  0.0000  0.0000  0.0000
    11DUM    Ar 4439   2.075   1.625   2.275  0.0000  0.0000  0.0000
    11DUM    Ar 4440   1.925   1.775   2.275  0.0000  0.0000  0.0000
    11DUM    Ar 4441   2.225   1.625   2.125  0.0000  0.0000  0.0000
    11DUM    Ar 4442   2.375   1.775   2.125  0.0000  0.0000  0.0000
    11DUM    Ar 4443   2.375   1.625   2.275  0.0000  0.0000  0.0000
    11DUM    Ar 4444   2.225   1.775   2.275  0.0000  0.0000  0.0000
    11DUM    Ar 4445   2.525   1.625   2.125  0.0000  0.0000  0.0000
    11DUM    Ar 4446   2.675   1.775   2.125  0.0000  0.0000  0.0000
    11DUM    Ar 4447   2.675   1.625   2.275  0.0000  0.0000  0.0000
    11DUM    Ar 4448   2.525   1.775   2.275  0.0000  0.0000  0.0000
    11DUM    Ar 4449   2.825   1.625   2.125  0.0000  0.0000  0.0000
    11DUM    Ar 4450   2.975   1.775   2.125  0.0000  0.0000  0.0000
    11DUM    Ar 4451   2.975   1.625   2.275  0.0000  0.0000  0.0000
    11DUM    Ar 4452   2.825   1.775   2.275  0.0000  0.0000  0.0000
    11DUM    Ar 4453   3.125   1.625   2.125  0.0000  0.0000  0.0000
    11DUM    Ar 4454   3.275   1.775   2.125  0.0000  0.0000  0.0000
    11DUM    Ar 4455   3.275   1.625   2.275  0.0000  0.0000  0.0000
    11DUM    Ar 4456   3.125   1.775   2.275  0.0000  0.0000  0.0000
    11DUM    Ar 4457   3.425   1.625   2.125  0.0000  0.0000  0.0000
    11DUM    Ar 4458   3.575   1.775   2.125  0.0000  0.0000  0.0000
    11DUM    Ar 4459   3.575   1.625   2.275  0.0000  0.0000  0.0000
    11DUM    Ar 4460   3.425   1.775   2.275  0.0000  0.0000  0.0000
    11DUM    Ar 4461   3.725   1.625   2.125  0.0000  0.0000  0.0000
    11DUM    Ar 4462   3.875   1.775   2.125  0.0000  0.0000  0.0000
    11DUM    Ar 4463   3.875   1.625   2.275  0.0000  0.0000  0.0000
    11DUM    Ar 4464   3.725   1.775   2.275  0.0000  0.0000  0.0000
    11DUM    Ar 4465   4.025   1.625   2.125  0.0000  0.0000  0.0000
    11DUM    Ar 4466   4.175   1.775   2.125  0.0000  0.0000  0.0000
    11DUM    Ar 4467   4.175   1.625   2.275  0.0000  0.0000  0.0000
    11DUM    Ar 4468   4.025   1.775   2.275  0.0000  0.0000  0.0000
    11DUM    Ar 4469  -0.175   1.925   2.125  0.0000  0.0000  0.0000
    11DUM    Ar 4470  -0.025   2.075   2.125  0.0000  0.0000  0.0000
    11DUM    Ar 4471  -0.025   1.925   2.275  0.0000  0.0000  0.0000
    11DUM    Ar 4472  -0.175   2.075   2.275  0.0000  0.0000  0.0000
    11DUM    Ar 4473   0.125   1.925   2.125  0.0000  0.0000  0.0000
    11DUM    Ar 4474   0.275   2.075   2.125  0.0000  0.0000  0.0000
    11DUM    Ar 4475   0.275   1.925   2.275  0.0000  0.0000  0.0000
    11DUM    Ar 4476   0.125   2.075   2.275  0.0000  0.0000  0.0000
    11DUM    Ar 4477   0.425   1.925   2.125  0.0000  0.0000  0.0000
    11DUM    Ar 4478   0.575   2.075   2.125  0.0000  0.0000  0.0000
    11DUM    Ar 4479   0.575   1.925   2.275  0.0000  0.0000  0.0000
    11DUM    Ar 4480   0.425   2.075   2.275  0.0000  0.0000  0.0000
    11DUM    Ar 4481   0.725   1.925   2.125  0.0000  0.0000  0.0000
    11DUM    Ar 4482   0.875   2.075   2.125  0.0000  0.0000  0.0000
    11DUM    Ar 4483   0.875   1.925   2.275  0.0000  0.0000  0.0000
    11DUM    Ar 4484   0.725   2.075   2.275  0.0000  0.0000  0.0000
    11DUM    Ar 4485   1.025   1.925   2.125  0.0000  0.0000  0.0000
    11DUM    Ar 4486   1.175   2.075   2.125  0.0000  0.0000  0.0000
    11DUM    Ar 4487   1.175   1.925   2.275  0.0000  0.0000  0.0000
    11DUM    Ar 4488   1.025   2.075   2.275  0.0000  0.0000  0.0000
    11DUM    Ar 4489   1.325   1.925   2.125  0.0000  0.0000  0.0000
    11DUM    Ar 4490   1.475   2.075   2.125  0.0000  0.0000  0.0000
    11DUM    Ar 4491   1.475   1.925   2.275  0.0000  0.0000  0.0000
    11DUM    Ar 4492   1.325   2.075   2.275  0.0000  0.0000  0.0000
    11DUM    Ar 4493   1.625   1.925   2.125  0.0000  0.0000  0.0000
    11DUM    Ar 4494   1.775   2.075   2.125  0.0000  0.0000  0.0000
    11DUM    Ar 4495   1.775   1.925   2.275  0.0000  0.0000  0.0000
    11DUM    Ar 4496   1.625   2.075   2.275  0.0000  0.0000  0.0000
    11DUM    Ar 4497   1.925   1.925   2.125  0.0000  0.0000  0.0000
    11DUM    Ar 4498   2.075   2.075   2.125  0.0000  0.0000  0.0000
    11DUM    Ar 4499   2.075   1.925   2.275  0.0000  0.0000  0.0000
    11DUM    Ar 4500   1.925   2.075   2.275  0.0000  0.0000  0.0000
    11DUM    Ar 4501   2.225   1.925   2.125  0.0000  0.0000  0.0000
    11DUM    Ar 4502   2.375   2.075   2.125  0.0000  0.0000  0.0000
    11DUM    Ar 4503   2.375   1.925   2.275  0.0000  0.0000  0.0000
    11DUM    Ar 4504   2.225   2.075   2.275  0.0000  0.0000  0.0000
    11DUM    Ar 4505   2.525   1.925   2.125  0.0000  0.0000  0.0000
    11DUM    Ar 4506   2.675   2.075   2.125  0.0000  0.0000  0.0000
    11DUM    Ar 4507   2.675   1.925   2.275  0.0000  0.0000  0.0000
    11DUM    Ar 4508   2.525   2.075   2.275  0.0000  0.0000  0.0000
    11DUM    Ar 4509   2.825   1.925   2.125  0.0000  0.0000  0.0000
    11DUM    Ar 4510   2.975   2.075   2.125  0.0000  0.0000  0.0000
    11DUM    Ar 4511   2.975   1.925   2.275  0.0000  0.0000  0.0000
    11DUM    Ar 4512   2.825   2.075   2.275  0.0000  0.0000  0.0000
    11DUM    Ar 4513   3.125   1.925   2.125  0.0000  0.0000  0.0000
    11DUM    Ar 4514   3.275   2.075   2.125  0.0000  0.0000  0.0000
    11DUM    Ar 4515   3.275   1.925   2.275  0.0000  0.0000  0.0000
    11DUM    Ar 4516   3.125   2.075   2.275  0.0000  0.0000  0.0000
    11DUM    Ar 4517   3.425   1.925   2.125  0.0000  0.0000  0.0000
    11DUM    Ar 4518   3.575   2.075   2.125  0.0000  0.0000  0.0000
    11DUM    Ar 4519   3.575   1.925   2.275  0.0000  0.0000  0.0000
    11DUM    Ar 4520   3.425   2.075   2.275  0.0000  0.0000  0.0000
    11DUM    Ar 4521   3.725   1.925   2.125  0.0000  0.0000  0.0000
    11DUM    Ar 4522   3.875   2.075   2.125  0.0000  0.0000  0.0000
    11DUM    Ar 4523   3.875   1.925   2.275  0.0000  0.0000  0.0000
    11DUM    Ar 4524   3.725   2.075   2.275  0.0000  0.0000  0.0000
    11DUM    Ar 4525   4.025   1.925   2.125  0.0000  0.0000  0.0000
    11DUM    Ar 4526   4.175   2.075   2.125  0.0000  0.0000  0.0000
    11DUM    Ar 4527   4.175   1.925   2.275  0.0000  0.0000  0.0000
    11DUM    Ar 4528   4.025   2.075   2.275  0.0000  0.0000  0.0000
    11DUM    Ar 4529  -0.175   2.225   2.125  0.0000  0.0000  0.0000
    11DUM    Ar 4530  -0.025   2.375   2.125  0.0000  0.0000  0.0000
    11DUM    Ar 4531  -0.025   2.225   2.275  0.0000  0.0000  0.0000
    11DUM    Ar 4532  -0.175   2.375   2.275  0.0000  0.0000  0.0000
    11DUM    Ar 4533   0.125   2.225   2.125  0.0000  0.0000  0.0000
    11DUM    Ar 4534   0.275   2.375   2.125  0.0000  0.0000  0.0000
    11DUM    Ar 4535   0.275   2.225   2.275  0.0000  0.0000  0.0000
    11DUM    Ar 4536   0.125   2.375   2.275  0.0000  0.0000  0.0000
    11DUM    Ar 4537   0.425   2.225   2.125  0.0000  0.0000  0.0000
    11DUM    Ar 4538   0.575   2.375   2.125  0.0000  0.0000  0.0000
    11DUM    Ar 4539   0.575   2.225   2.275  0.0000  0.0000  0.0000
    11DUM    Ar 4540   0.425   2.375   2.275  0.0000  0.0000  0.0000
    11DUM    Ar 4541   0.725   2.225   2.125  0.0000  0.0000  0.0000
    11DUM    Ar 4542   0.875   2.375   2.125  0.0000  0.0000  0.0000
    11DUM    Ar 4543   0.875   2.225   2.275  0.0000  0.0000  0.0000
    11DUM    Ar 4544   0.725   2.375   2.275  0.0000  0.0000  0.0000
    11DUM    Ar 4545   1.025   2.225   2.125  0.0000  0.0000  0.0000
    11DUM    Ar 4546   1.175   2.375   2.125  0.0000  0.0000  0.0000
    11DUM    Ar 4547   1.175   2.225   2.275  0.0000  0.0000  0.0000
    11DUM    Ar 4548   1.025   2.375   2.275  0.0000  0.0000  0.0000
    11DUM    Ar 4549   1.325   2.225   2.125  0.0000  0.0000  0.0000
    11DUM    Ar 4550   1.475   2.375   2.125  0.0000  0.0000  0.0000
    11DUM    Ar 4551   1.475   2.225   2.275  0.0000  0.0000  0.0000
    11DUM    Ar 4552   1.325   2.375   2.275  0.0000  0.0000  0.0000
    11DUM    Ar 4553   1.625   2.225   2.125  0.0000  0.0000  0.0000
    11DUM    Ar 4554   1.775   2.375   2.125  0.0000  0.0000  0.0000
    11DUM    Ar 4555   1.775   2.225   2.275  0.0000  0.0000  0.0000
    11DUM    Ar 4556   1.625   2.375   2.275  0.0000  0.0000  0.0000
    11DUM    Ar 4557   1.925   2.225   2.125  0.0000  0.0000  0.0000
    11DUM    Ar 4558   2.075   2.375   2.125  0.0000  0.0000  0.0000
    11DUM    Ar 4559   2.075   2.225   2.275  0.0000  0.0000  0.0000
    11DUM    Ar 4560   1.925   2.375   2.275  0.0000  0.0000  0.0000
    11DUM    Ar 4561   2.225   2.225   2.125  0.0000  0.0000  0.0000
    11DUM    Ar 4562   2.375   2.375   2.125  0.0000  0.0000  0.0000
    11DUM    Ar 4563   2.375   2.225   2.275  0.0000  0.0000  0.0000
    11DUM    Ar 4564   2.225   2.375   2.275  0.0000  0.0000  0.0000
    11DUM    Ar 4565   2.525   2.225   2.125  0.0000  0.0000  0.0000
    11DUM    Ar 4566   2.675   2.375   2.125  0.0000  0.0000  0.0000
    11DUM    Ar 4567   2.675   2.225   2.275  0.0000  0.0000  0.0000
    11DUM    Ar 4568   2.525   2.375   2.275  0.0000  0.0000  0.0000
    11DUM    Ar 4569   2.825   2.225   2.125  0.0000  0.0000  0.0000
    11DUM    Ar 4570   2.975   2.375   2.125  0.0000  0.0000  0.0000
    11DUM    Ar 4571   2.975   2.225   2.275  0.0000  0.0000  0.0000
    11DUM    Ar 4572   2.825   2.375   2.275  0.0000  0.0000  0.0000
    11DUM    Ar 4573   3.125   2.225   2.125  0.0000  0.0000  0.0000
    11DUM    Ar 4574   3.275   2.375   2.125  0.0000  0.0000  0.0000
    11DUM    Ar 4575   3.275   2.225   2.275  0.0000  0.0000  0.0000
    11DUM    Ar 4576   3.125   2.375   2.275  0.0000  0.0000  0.0000
    11DUM    Ar 4577   3.425   2.225   2.125  0.0000  0.0000  0.0000
    11DUM    Ar 4578   3.575   2.375   2.125  0.0000  0.0000  0.0000
    11DUM    Ar 4579   3.575   2.225   2.275  0.0000  0.0000  0.0000
    11DUM    Ar 4580   3.425   2.375   2.275  0.0000  0.0000  0.0000
    11DUM    Ar 4581   3.725   2.225   2.125  0.0000  0.0000  0.0000
    11DUM    Ar 4582   3.875   2.375   2.125  0.0000  0.0000  0.0000
    11DUM    Ar 4583   3.875   2.225   2.275  0.0000  0.0000  0.0000
    11DUM    Ar 4584   3.725   2.375   2.275  0.0000  0.0000  0.0000
    11DUM    Ar 4585   4.025   2.225   2.125  0.0000  0.0000  0.0000
    11DUM    Ar 4586   4.175   2.375   2.125  0.0000  0.0000  0.0000
    11DUM    Ar 4587   4.175   2.225   2.275  0.0000  0.0000  0.0000
    11DUM    Ar 4588   4.025   2.375   2.275  0.0000  0.0000  0.0000
    11DUM    Ar 4589  -0.175   2.525   2.125  0.0000  0.0000  0.0000
    11DUM    Ar 4590  -0.025   2.675   2.125  0.0000  0.0000  0.0000
    11DUM    Ar 4591  -0.025   2.525   2.275  0.0000  0.0000  0.0000
    11DUM    Ar 4592  -0.175   2.675   2.275  0.0000  0.0000  0.0000
    11DUM    Ar 4593   0.125   2.525   2.125  0.0000  0.0000  0.0000
    11DUM    Ar 4594   0.275   2.675   2.125  0.0000  0.0000  0.0000
    11DUM    Ar 4595   0.275   2.525   2.275  0.0000  0.0000  0.0000
    11DUM    Ar 4596   0.125   2.675   2.275  0.0000  0.0000  0.0000
    11DUM    Ar 4597   0.425   2.525   2.125  0.0000  0.0000  0.0000
    11DUM    Ar 4598   0.575   2.525   2.275  0.0000  0.0000  0.0000
    11DUM    Ar 4599   0.425   2.675   2.275  0.0000  0.0000  0.0000
    11DUM    Ar 4600   1.475   2.525   2.275  0.0000  0.0000  0.0000
    11DUM    Ar 4601   1.625   2.525   2.125  0.0000  0.0000  0.0000
    11DUM    Ar 4602   1.775   2.675   2.125  0.0000  0.0000  0.0000
    11DUM    Ar 4603   1.775   2.525   2.275  0.0000  0.0000  0.0000
    11DUM    Ar 4604   1.625   2.675   2.275  0.0000  0.0000  0.0000
    11DUM    Ar 4605   1.925   2.525   2.125  0.0000  0.0000  0.0000
    11DUM    Ar 4606   2.075   2.675   2.125  0.0000  0.0000  0.0000
    11DUM    Ar 4607   2.075   2.525   2.275  0.0000  0.0000  0.0000
    11DUM    Ar 4608   1.925   2.675   2.275  0.0000  0.0000  0.0000
    11DUM    Ar 4609   2.225   2.525   2.125  0.0000  0.0000  0.0000
    11DUM    Ar 4610   2.375   2.675   2.125  0.0000  0.0000  0.0000
    11DUM    Ar 4611   2.375   2.525   2.275  0.0000  0.0000  0.0000
    11DUM    Ar 4612   2.225   2.675   2.275  0.0000  0.0000  0.0000
    11DUM    Ar 4613   2.525   2.525   2.125  0.0000  0.0000  0.0000
    11DUM    Ar 4614   3.425   2.525   2.125  0.0000  0.0000  0.0000
    11DUM    Ar 4615   3.575   2.675   2.125  0.0000  0.0000  0.0000
    11DUM    Ar 4616   3.575   2.525   2.275  0.0000  0.0000  0.0000
    11DUM    Ar 4617   3.725   2.525   2.125  0.0000  0.0000  0.0000
    11DUM    Ar 4618   3.875   2.675   2.125  0.0000  0.0000  0.0000
    11DUM    Ar 4619   3.875   2.525   2.275  0.0000  0.0000  0.0000
    11DUM    Ar 4620   3.725   2.675   2.275  0.0000  0.0000  0.0000
    11DUM    Ar 4621   4.025   2.525   2.125  0.0000  0.0000  0.0000
    11DUM    Ar 4622   4.175   2.675   2.125  0.0000  0.0000  0.0000
    11DUM    Ar 4623   4.175   2.525   2.275  0.0000  0.0000  0.0000
    11DUM    Ar 4624   4.025   2.675   2.275  0.0000  0.0000  0.0000
    11DUM    Ar 4625  -0.175   2.825   2.125  0.0000  0.0000  0.0000
    11DUM    Ar 4626  -0.025   2.975   2.125  0.0000  0.0000  0.0000
    11DUM    Ar 4627  -0.025   2.825   2.275  0.0000  0.0000  0.0000
    11DUM    Ar 4628  -0.175   2.975   2.275  0.0000  0.0000  0.0000
    11DUM    Ar 4629   0.125   2.825   2.125  0.0000  0.0000  0.0000
    11DUM    Ar 4630   0.275   2.975   2.125  0.0000  0.0000  0.0000
    11DUM    Ar 4631   0.275   2.825   2.275  0.0000  0.0000  0.0000
    11DUM    Ar 4632   0.125   2.975   2.275  0.0000  0.0000  0.0000
    11DUM    Ar 4633   1.625   2.825   2.125  0.0000  0.0000  0.0000
    11DUM    Ar 4634   1.775   2.975   2.125  0.0000  0.0000  0.0000
    11DUM    Ar 4635   1.775   2.825   2.275  0.0000  0.0000  0.0000
    11DUM    Ar 4636   1.625   2.975   2.275  0.0000  0.0000  0.0000
    11DUM    Ar 4637   1.925   2.825   2.125  0.0000  0.0000  0.0000
    11DUM    Ar 4638   2.075   2.975   2.125  0.0000  0.0000  0.0000
    11DUM    Ar 4639   2.075   2.825   2.275  0.0000  0.0000  0.0000
    11DUM    Ar 4640   1.925   2.975   2.275  0.0000  0.0000  0.0000
    11DUM    Ar 4641   2.225   2.825   2.125  0.0000  0.0000  0.0000
    11DUM    Ar 4642   2.375   2.975   2.125  0.0000  0.0000  0.0000
    11DUM    Ar 4643   2.375   2.825   2.275  0.0000  0.0000  0.0000
    11DUM    Ar 4644   2.225   2.975   2.275  0.0000  0.0000  0.0000
    11DUM    Ar 4645   3.725   2.825   2.125  0.0000  0.0000  0.0000
    11DUM    Ar 4646   3.875   2.975   2.125  0.0000  0.0000  0.0000
    11DUM    Ar 4647   3.875   2.825   2.275  0.0000  0.0000  0.0000
    11DUM    Ar 4648   3.725   2.975   2.275  0.0000  0.0000  0.0000
    11DUM    Ar 4649   4.025   2.825   2.125  0.0000  0.0000  0.0000
    11DUM    Ar 4650   4.175   2.975   2.125  0.0000  0.0000  0.0000
    11DUM    Ar 4651   4.175   2.825   2.275  0.0000  0.0000  0.0000
    11DUM    Ar 4652   4.025   2.975   2.275  0.0000  0.0000  0.0000
    11DUM    Ar 4653  -0.175   3.125   2.125  0.0000  0.0000  0.0000
    11DUM    Ar 4654  -0.025   3.275   2.125  0.0000  0.0000  0.0000
    11DUM    Ar 4655  -0.025   3.125   2.275  0.0000  0.0000  0.0000
    11DUM    Ar 4656  -0.175   3.275   2.275  0.0000  0.0000  0.0000
    11DUM    Ar 4657   0.125   3.125   2.125  0.0000  0.0000  0.0000
    11DUM    Ar 4658   0.275   3.275   2.125  0.0000  0.0000  0.0000
    11DUM    Ar 4659   0.275   3.125   2.275  0.0000  0.0000  0.0000
    11DUM    Ar 4660   0.125   3.275   2.275  0.0000  0.0000  0.0000
    11DUM    Ar 4661   0.425   3.275   2.275  0.0000  0.0000  0.0000
    11DUM    Ar 4662   1.625   3.125   2.125  0.0000  0.0000  0.0000
    11DUM    Ar 4663   1.775   3.275   2.125  0.0000  0.0000  0.0000
    11DUM    Ar 4664   1.775   3.125   2.275  0.0000  0.0000  0.0000
    11DUM    Ar 4665   1.625   3.275   2.275  0.0000  0.0000  0.0000
    11DUM    Ar 4666   1.925   3.125   2.125  0.0000  0.0000  0.0000
    11DUM    Ar 4667   2.075   3.275   2.125  0.0000  0.0000  0.0000
    11DUM    Ar 4668   2.075   3.125   2.275  0.0000  0.0000  0.0000
    11DUM    Ar 4669   1.925   3.275   2.275  0.0000  0.0000  0.0000
    11DUM    Ar 4670   2.225   3.125   2.125  0.0000  0.0000  0.0000
    11DUM    Ar 4671   2.375   3.275   2.125  0.0000  0.0000  0.0000
    11DUM    Ar 4672   2.375   3.125   2.275  0.0000  0.0000  0.0000
    11DUM    Ar 4673   2.225   3.275   2.275  0.0000  0.0000  0.0000
    11DUM    Ar 4674   3.575   3.275   2.125  0.0000  0.0000  0.0000
    11DUM    Ar 4675   3.725   3.125   2.125  0.0000  0.0000  0.0000
    11DUM    Ar 4676   3.875   3.275   2.125  0.0000  0.0000  0.0000
    11DUM    Ar 4677   3.875   3.125   2.275  0.0000  0.0000  0.0000
    11DUM    Ar 4678   3.725   3.275   2.275  0.0000  0.0000  0.0000
    11DUM    Ar 4679   4.025   3.125   2.125  0.0000  0.0000  0.0000
    11DUM    Ar 4680   4.175   3.275   2.125  0.0000  0.0000  0.0000
    11DUM    Ar 4681   4.175   3.125   2.275  0.0000  0.0000  0.0000
    11DUM    Ar 4682   4.025   3.275   2.275  0.0000  0.0000  0.0000
    11DUM    Ar 4683  -0.175   3.425   2.125  0.0000  0.0000  0.0000
    11DUM    Ar 4684  -0.025   3.575   2.125  0.0000  0.0000  0.0000
    11DUM    Ar 4685  -0.025   3.425   2.275  0.0000  0.0000  0.0000
    11DUM    Ar 4686  -0.175   3.575   2.275  0.0000  0.0000  0.0000
    11DUM    Ar 4687   0.125   3.425   2.125  0.0000  0.0000  0.0000
    11DUM    Ar 4688   0.275   3.575   2.125  0.0000  0.0000  0.0000
    11DUM    Ar 4689   0.275   3.425   2.275  0.0000  0.0000  0.0000
    11DUM    Ar 4690   0.125   3.575   2.275  0.0000  0.0000  0.0000
    11DUM    Ar 4691   0.425   3.425   2.125  0.0000  0.0000  0.0000
    11DUM    Ar 4692   0.575   3.575   2.125  0.0000  0.0000  0.0000
    11DUM    Ar 4693   0.425   3.575   2.275  0.0000  0.0000  0.0000
    11DUM    Ar 4694   0.725   3.575   2.275  0.0000  0.0000  0.0000
    11DUM    Ar 4695   1.475   3.575   2.125  0.0000  0.0000  0.0000
    11DUM    Ar 4696   1.475   3.425   2.275  0.0000  0.0000  0.0000
    11DUM    Ar 4697   1.325   3.575   2.275  0.0000  0.0000  0.0000
    11DUM    Ar 4698   1.625   3.425   2.125  0.0000  0.0000  0.0000
    11DUM    Ar 4699   1.775   3.575   2.125  0.0000  0.0000  0.0000
    11DUM    Ar 4700   1.775   3.425   2.275  0.0000  0.0000  0.0000
    11DUM    Ar 4701   1.625   3.575   2.275  0.0000  0.0000  0.0000
    11DUM    Ar 4702   1.925   3.425   2.125  0.0000  0.0000  0.0000
    11DUM    Ar 4703   2.075   3.575   2.125  0.0000  0.0000  0.0000
    11DUM    Ar 4704   2.075   3.425   2.275  0.0000  0.0000  0.0000
    11DUM    Ar 4705   1.925   3.575   2.275  0.0000  0.0000  0.0000
    11DUM    Ar 4706   2.225   3.425   2.125  0.0000  0.0000  0.0000
    11DUM    Ar 4707   2.375   3.575   2.125  0.0000  0.0000  0.0000
    11DUM    Ar 4708   2.375   3.425   2.275  0.0000  0.0000  0.0000
    11DUM    Ar 4709   2.225   3.575   2.275  0.0000  0.0000  0.0000
    11DUM    Ar 4710   2.525   3.425   2.125  0.0000  0.0000  0.0000
    11DUM    Ar 4711   2.675   3.575   2.125  0.0000  0.0000  0.0000
    11DUM    Ar 4712   2.525   3.575   2.275  0.0000  0.0000  0.0000
    11DUM    Ar 4713   3.275   3.575   2.125  0.0000  0.0000  0.0000
    11DUM    Ar 4714   3.575   3.575   2.125  0.0000  0.0000  0.0000
    11DUM    Ar 4715   3.575   3.425   2.275  0.0000  0.0000  0.0000
    11DUM    Ar 4716   3.425   3.575   2.275  0.0000  0.0000  0.0000
    11DUM    Ar 4717   3.725   3.425   2.125  0.0000  0.0000  0.0000
    11DUM    Ar 4718   3.875   3.575   2.125  0.0000  0.0000  0.0000
    11DUM    Ar 4719   3.875   3.425   2.275  0.0000  0.0000  0.0000
    11DUM    Ar 4720   3.725   3.575   2.275  0.0000  0.0000  0.0000
    11DUM    Ar 4721   4.025   3.425   2.125  0.0000  0.0000  0.0000
    11DUM    Ar 4722   4.175   3.575   2.125  0.0000  0.0000  0.0000
    11DUM    Ar 4723   4.175   3.425   2.275  0.0000  0.0000  0.0000
    11DUM    Ar 4724   4.025   3.575   2.275  0.0000  0.0000  0.0000
    11DUM    Ar 4725  -0.175   3.725   2.125  0.0000  0.0000  0.0000
    11DUM    Ar 4726  -0.025   3.875   2.125  0.0000  0.0000  0.0000
    11DUM    Ar 4727  -0.025   3.725   2.275  0.0000  0.0000  0.0000
    11DUM    Ar 4728  -0.175   3.875   2.275  0.0000  0.0000  0.0000
    11DUM    Ar 4729   0.125   3.725   2.125  0.0000  0.0000  0.0000
    11DUM    Ar 4730   0.275   3.875   2.125  0.0000  0.0000  0.0000
    11DUM    Ar 4731   0.275   3.725   2.275  0.0000  0.0000  0.0000
    11DUM    Ar 4732   0.125   3.875   2.275  0.0000  0.0000  0.0000
    11DUM    Ar 4733   0.425   3.725   2.125  0.0000  0.0000  0.0000
    11DUM    Ar 4734   0.575   3.875   2.125  0.0000  0.0000  0.0000
    11DUM    Ar 4735   0.575   3.725   2.275  0.0000  0.0000  0.0000
    11DUM    Ar 4736   0.425   3.875   2.275  0.0000  0.0000  0.0000
    11DUM    Ar 4737   0.725   3.725   2.125  0.0000  0.0000  0.0000
    11DUM    Ar 4738   0.875   3.875   2.125  0.0000  0.0000  0.0000
    11DUM    Ar 4739   0.875   3.725   2.275  0.0000  0.0000  0.0000
    11DUM    Ar 4740   0.725   3.875   2.275  0.0000  0.0000  0.0000
    11DUM    Ar 4741   1.025   3.725   2.125  0.0000  0.0000  0.0000
    11DUM    Ar 4742   1.175   3.875   2.125  0.0000  0.0000  0.0000
    11DUM    Ar 4743   1.175   3.725   2.275  0.0000  0.0000  0.0000
    11DUM    Ar 4744   1.025   3.875   2.275  0.0000  0.0000  0.0000
    11DUM    Ar 4745   1.325   3.725   2.125  0.0000  0.0000  0.0000
    11DUM    Ar 4746   1.475   3.875   2.125  0.0000  0.0000  0.0000
    11DUM    Ar 4747   1.475   3.725   2.275  0.0000  0.0000  0.0000
    11DUM    Ar 4748   1.325   3.875   2.275  0.0000  0.0000  0.0000
    11DUM    Ar 4749   1.625   3.725   2.125  0.0000  0.0000  0.0000
    11DUM    Ar 4750   1.775   3.875   2.125  0.0000  0.0000  0.0000
    11DUM    Ar 4751   1.775   3.725   2.275  0.0000  0.0000  0.0000
    11DUM    Ar 4752   1.625   3.875   2.275  0.0000  0.0000  0.0000
    11DUM    Ar 4753   1.925   3.725   2.125  0.0000  0.0000  0.0000
    11DUM    Ar 4754   2.075   3.875   2.125  0.0000  0.0000  0.0000
    11DUM    Ar 4755   2.075   3.725   2.275  0.0000  0.0000  0.0000
    11DUM    Ar 4756   1.925   3.875   2.275  0.0000  0.0000  0.0000
    11DUM    Ar 4757   2.225   3.725   2.125  0.0000  0.0000  0.0000
    11DUM    Ar 4758   2.375   3.875   2.125  0.0000  0.0000  0.0000
    11DUM    Ar 4759   2.375   3.725   2.275  0.0000  0.0000  0.0000
    11DUM    Ar 4760   2.225   3.875   2.275  0.0000  0.0000  0.0000
    11DUM    Ar 4761   2.525   3.725   2.125  0.0000  0.0000  0.0000
    11DUM    Ar 4762   2.675   3.875   2.125  0.0000  0.0000  0.0000
    11DUM    Ar 4763   2.675   3.725   2.275  0.0000  0.0000  0.0000
    11DUM    Ar 4764   2.525   3.875   2.275  0.0000  0.0000  0.0000
    11DUM    Ar 4765   2.825   3.725   2.125  0.0000  0.0000  0.0000
    11DUM    Ar 4766   2.975   3.875   2.125  0.0000  0.0000  0.0000
    11DUM    Ar 4767   2.975   3.725   2.275  0.0000  0.0000  0.0000
    11DUM    Ar 4768   2.825   3.875   2.275  0.0000  0.0000  0.0000
    11DUM    Ar 4769   3.125   3.725   2.125  0.0000  0.0000  0.0000
    11DUM    Ar 4770   3.275   3.875   2.125  0.0000  0.0000  0.0000
    11DUM    Ar 4771   3.275   3.725   2.275  0.0000  0.0000  0.0000
    11DUM    Ar 4772   3.125   3.875   2.275  0.0000  0.0000  0.0000
    11DUM    Ar 4773   3.425   3.725   2.125  0.0000  0.0000  0.0000
    11DUM    Ar 4774   3.575   3.875   2.125  0.0000  0.0000  0.0000
    11DUM    Ar 4775   3.575   3.725   2.275  0.0000  0.0000  0.0000
    11DUM    Ar 4776   3.425   3.875   2.275  0.0000  0.0000  0.0000
    11DUM    Ar 4777   3.725   3.725   2.125  0.0000  0.0000  0.0000
    11DUM    Ar 4778   3.875   3.875   2.125  0.0000  0.0000  0.0000
    11DUM    Ar 4779   3.875   3.725   2.275  0.0000  0.0000  0.0000
    11DUM    Ar 4780   3.725   3.875   2.275  0.0000  0.0000  0.0000
    11DUM    Ar 4781   4.025   3.725   2.125  0.0000  0.0000  0.0000
    11DUM    Ar 4782   4.175   3.875   2.125  0.0000  0.0000  0.0000
    11DUM    Ar 4783   4.175   3.725   2.275  0.0000  0.0000  0.0000
    11DUM    Ar 4784   4.025   3.875   2.275  0.0000  0.0000  0.0000
    11DUM    Ar 4785  -0.175   4.025   2.125  0.0000  0.0000  0.0000
    11DUM    Ar 4786  -0.025   4.175   2.125  0.0000  0.0000  0.0000
    11DUM    Ar 4787  -0.025   4.025   2.275  0.0000  0.0000  0.0000
    11DUM    Ar 4788  -0.175   4.175   2.275  0.0000  0.0000  0.0000
    11DUM    Ar 4789   0.125   4.025   2.125  0.0000  0.0000  0.0000
    11DUM    Ar 4790   0.275   4.175   2.125  0.0000  0.0000  0.0000
    11DUM    Ar 4791   0.275   4.025   2.275  0.0000  0.0000  0.0000
    11DUM    Ar 4792   0.125   4.175   2.275  0.0000  0.0000  0.0000
    11DUM    Ar 4793   0.425   4.025   2.125  0.0000  0.0000  0.0000
    11DUM    Ar 4794   0.575   4.175   2.125  0.0000  0.0000  0.0000
    11DUM    Ar 4795   0.575   4.025   2.275  0.0000  0.0000  0.0000
    11DUM    Ar 4796   0.425   4.175   2.275  0.0000  0.0000  0.0000
    11DUM    Ar 4797   0.725   4.025   2.125  0.0000  0.0000  0.0000
    11DUM    Ar 4798   0.875   4.175   2.125  0.0000  0.0000  0.0000
    11DUM    Ar 4799   0.875   4.025   2.275  0.0000  0.0000  0.0000
    11DUM    Ar 4800   0.725   4.175   2.275  0.0000  0.0000  0.0000
    11DUM    Ar 4801   1.025   4.025   2.125  0.0000  0.0000  0.0000
    11DUM    Ar 4802   1.175   4.175   2.125  0.0000  0.0000  0.0000
    11DUM    Ar 4803   1.175   4.025   2.275  0.0000  0.0000  0.0000
    11DUM    Ar 4804   1.025   4.175   2.275  0.0000  0.0000  0.0000
    11DUM    Ar 4805   1.325   4.025   2.125  0.0000  0.0000  0.0000
    11DUM    Ar 4806   1.475   4.175   2.125  0.0000  0.0000  0.0000
    11DUM    Ar 4807   1.475   4.025   2.275  0.0000  0.0000  0.0000
    11DUM    Ar 4808   1.325   4.175   2.275  0.0000  0.0000  0.0000
    11DUM    Ar 4809   1.625   4.025   2.125  0.0000  0.0000  0.0000
    11DUM    Ar 4810   1.775   4.175   2.125  0.0000  0.0000  0.0000
    11DUM    Ar 4811   1.775   4.025   2.275  0.0000  0.0000  0.0000
    11DUM    Ar 4812   1.625   4.175   2.275  0.0000  0.0000  0.0000
    11DUM    Ar 4813   1.925   4.025   2.125  0.0000  0.0000  0.0000
    11DUM    Ar 4814   2.075   4.175   2.125  0.0000  0.0000  0.0000
    11DUM    Ar 4815   2.075   4.025   2.275  0.0000  0.0000  0.0000
    11DUM    Ar 4816   1.925   4.175   2.275  0.0000  0.0000  0.0000
    11DUM    Ar 4817   2.225   4.025   2.125  0.0000  0.0000  0.0000
    11DUM    Ar 4818   2.375   4.175   2.125  0.0000  0.0000  0.0000
    11DUM    Ar 4819   2.375   4.025   2.275  0.0000  0.0000  0.0000
    11DUM    Ar 4820   2.225   4.175   2.275  0.0000  0.0000  0.0000
    11DUM    Ar 4821   2.525   4.025   2.125  0.0000  0.0000  0.0000
    11DUM    Ar 4822   2.675   4.175   2.125  0.0000  0.0000  0.0000
    11DUM    Ar 4823   2.675   4.025   2.275  0.0000  0.0000  0.0000
    11DUM    Ar 4824   2.525   4.175   2.275  0.0000  0.0000  0.0000
    11DUM    Ar 4825   2.825   4.025   2.125  0.0000  0.0000  0.0000
    11DUM    Ar 4826   2.975   4.175   2.125  0.0000  0.0000  0.0000
    11DUM    Ar 4827   2.975   4.025   2.275  0.0000  0.0000  0.0000
    11DUM    Ar 4828   2.825   4.175   2.275  0.0000  0.0000  0.0000
    11DUM    Ar 4829   3.125   4.025   2.125  0.0000  0.0000  0.0000
    11DUM    Ar 4830   3.275   4.175   2.125  0.0000  0.0000  0.0000
    11DUM    Ar 4831   3.275   4.025   2.275  0.0000  0.0000  0.0000
    11DUM    Ar 4832   3.125   4.175   2.275  0.0000  0.0000  0.0000
    11DUM    Ar 4833   3.425   4.025   2.125  0.0000  0.0000  0.0000
    11DUM    Ar 4834   3.575   4.175   2.125  0.0000  0.0000  0.0000
    11DUM    Ar 4835   3.575   4.025   2.275  0.0000  0.0000  0.0000
    11DUM    Ar 4836   3.425   4.175   2.275  0.0000  0.0000  0.0000
    11DUM    Ar 4837   3.725   4.025   2.125  0.0000  0.0000  0.0000
    11DUM    Ar 4838   3.875   4.175   2.125  0.0000  0.0000  0.0000
    11DUM    Ar 4839   3.875   4.025   2.275  0.0000  0.0000  0.0000
    11DUM    Ar 4840   3.725   4.175   2.275  0.0000  0.0000  0.0000
    11DUM    Ar 4841   4.025   4.025   2.125  0.0000  0.0000  0.0000
    11DUM    Ar 4842   4.175   4.175   2.125  0.0000  0.0000  0.0000
    11DUM    Ar 4843   4.175   4.025   2.275  0.0000  0.0000  0.0000
    11DUM    Ar 4844   4.025   4.175   2.275  0.0000  0.0000  0.0000
    11DUM    Ar 4845  -0.175  -0.175   2.425  0.0000  0.0000  0.0000
    11DUM    Ar 4846  -0.025  -0.025   2.425  0.0000  0.0000  0.0000
    11DUM    Ar 4847  -0.025  -0.175   2.575  0.0000  0.0000  0.0000
    11DUM    Ar 4848  -0.175  -0.025   2.575  0.0000  0.0000  0.0000
    11DUM    Ar 4849   0.125  -0.175   2.425  0.0000  0.0000  0.0000
    11DUM    Ar 4850   0.275  -0.025   2.425  0.0000  0.0000  0.0000
    11DUM    Ar 4851   0.275  -0.175   2.575  0.0000  0.0000  0.0000
    11DUM    Ar 4852   0.125  -0.025   2.575  0.0000  0.0000  0.0000
    11DUM    Ar 4853   0.425  -0.175   2.425  0.0000  0.0000  0.0000
    11DUM    Ar 4854   0.575  -0.025   2.425  0.0000  0.0000  0.0000
    11DUM    Ar 4855   0.575  -0.175   2.575  0.0000  0.0000  0.0000
    11DUM    Ar 4856   0.425  -0.025   2.575  0.0000  0.0000  0.0000
    11DUM    Ar 4857   0.725  -0.175   2.425  0.0000  0.0000  0.0000
    11DUM    Ar 4858   0.875  -0.025   2.425  0.0000  0.0000  0.0000
    11DUM    Ar 4859   0.875  -0.175   2.575  0.0000  0.0000  0.0000
    11DUM    Ar 4860   0.725  -0.025   2.575  0.0000  0.0000  0.0000
    11DUM    Ar 4861   1.025  -0.175   2.425  0.0000  0.0000  0.0000
    11DUM    Ar 4862   1.175  -0.025   2.425  0.0000  0.0000  0.0000
    11DUM    Ar 4863   1.175  -0.175   2.575  0.0000  0.0000  0.0000
    11DUM    Ar 4864   1.025  -0.025   2.575  0.0000  0.0000  0.0000
    11DUM    Ar 4865   1.325  -0.175   2.425  0.0000  0.0000  0.0000
    11DUM    Ar 4866   1.475  -0.025   2.425  0.0000  0.0000  0.0000
    11DUM    Ar 4867   1.475  -0.175   2.575  0.0000  0.0000  0.0000
    11DUM    Ar 4868   1.325  -0.025   2.575  0.0000  0.0000  0.0000
    11DUM    Ar 4869   1.625  -0.175   2.425  0.0000  0.0000  0.0000
    11DUM    Ar 4870   1.775  -0.025   2.425  0.0000  0.0000  0.0000
    11DUM    Ar 4871   1.775  -0.175   2.575  0.0000  0.0000  0.0000
    11DUM    Ar 4872   1.625  -0.025   2.575  0.0000  0.0000  0.0000
    11DUM    Ar 4873   1.925  -0.175   2.425  0.0000  0.0000  0.0000
    11DUM    Ar 4874   2.075  -0.025   2.425  0.0000  0.0000  0.0000
    11DUM    Ar 4875   2.075  -0.175   2.575  0.0000  0.0000  0.0000
    11DUM    Ar 4876   1.925  -0.025   2.575  0.0000  0.0000  0.0000
    11DUM    Ar 4877   2.225  -0.175   2.425  0.0000  0.0000  0.0000
    11DUM    Ar 4878   2.375  -0.025   2.425  0.0000  0.0000  0.0000
    11DUM    Ar 4879   2.375  -0.175   2.575  0.0000  0.0000  0.0000
    11DUM    Ar 4880   2.225  -0.025   2.575  0.0000  0.0000  0.0000
    11DUM    Ar 4881   2.525  -0.175   2.425  0.0000  0.0000  0.0000
    11DUM    Ar 4882   2.675  -0.025   2.425  0.0000  0.0000  0.0000
    11DUM    Ar 4883   2.675  -0.175   2.575  0.0000  0.0000  0.0000
    11DUM    Ar 4884   2.525  -0.025   2.575  0.0000  0.0000  0.0000
    11DUM    Ar 4885   2.825  -0.175   2.425  0.0000  0.0000  0.0000
    11DUM    Ar 4886   2.975  -0.025   2.425  0.0000  0.0000  0.0000
    11DUM    Ar 4887   2.975  -0.175   2.575  0.0000  0.0000  0.0000
    11DUM    Ar 4888   2.825  -0.025   2.575  0.0000  0.0000  0.0000
    11DUM    Ar 4889   3.125  -0.175   2.425  0.0000  0.0000  0.0000
    11DUM    Ar 4890   3.275  -0.025   2.425  0.0000  0.0000  0.0000
    11DUM    Ar 4891   3.275  -0.175   2.575  0.0000  0.0000  0.0000
    11DUM    Ar 4892   3.125  -0.025   2.575  0.0000  0.0000  0.0000
    11DUM    Ar 4893   3.425  -0.175   2.425  0.0000  0.0000  0.0000
    11DUM    Ar 4894   3.575  -0.025   2.425  0.0000  0.0000  0.0000
    11DUM    Ar 4895   3.575  -0.175   2.575  0.0000  0.0000  0.0000
    11DUM    Ar 4896   3.425  -0.025   2.575  0.0000  0.0000  0.0000
    11DUM    Ar 4897   3.725  -0.175   2.425  0.0000  0.0000  0.0000
    11DUM    Ar 4898   3.875  -0.025   2.425  0.0000  0.0000  0.0000
    11DUM    Ar 4899   3.875  -0.175   2.575  0.0000  0.0000  0.0000
    11DUM    Ar 4900   3.725  -0.025   2.575  0.0000  0.0000  0.0000
    11DUM    Ar 4901   4.025  -0.175   2.425  0.0000  0.0000  0.0000
    11DUM    Ar 4902   4.175  -0.025   2.425  0.0000  0.0000  0.0000
    11DUM    Ar 4903   4.175  -0.175   2.575  0.0000  0.0000  0.0000
    11DUM    Ar 4904   4.025  -0.025   2.575  0.0000  0.0000  0.0000
    11DUM    Ar 4905  -0.175   0.125   2.425  0.0000  0.0000  0.0000
    11DUM    Ar 4906  -0.025   0.275   2.425  0.0000  0.0000  0.0000
    11DUM    Ar 4907  -0.025   0.125   2.575  0.0000  0.0000  0.0000
    11DUM    Ar 4908  -0.175   0.275   2.575  0.0000  0.0000  0.0000
    11DUM    Ar 4909   0.125   0.125   2.425  0.0000  0.0000  0.0000
    11DUM    Ar 4910   0.275   0.275   2.425  0.0000  0.0000  0.0000
    11DUM    Ar 4911   0.275   0.125   2.575  0.0000  0.0000  0.0000
    11DUM    Ar 4912   0.125   0.275   2.575  0.0000  0.0000  0.0000
    11DUM    Ar 4913   0.425   0.125   2.425  0.0000  0.0000  0.0000
    11DUM    Ar 4914   0.575   0.275   2.425  0.0000  0.0000  0.0000
    11DUM    Ar 4915   0.575   0.125   2.575  0.0000  0.0000  0.0000
    11DUM    Ar 4916   0.425   0.275   2.575  0.0000  0.0000  0.0000
    11DUM    Ar 4917   0.725   0.125   2.425  0.0000  0.0000  0.0000
    11DUM    Ar 4918   0.875   0.275   2.425  0.0000  0.0000  0.0000
    11DUM    Ar 4919   0.875   0.125   2.575  0.0000  0.0000  0.0000
    11DUM    Ar 4920   0.725   0.275   2.575  0.0000  0.0000  0.0000
    11DUM    Ar 4921   1.025   0.125   2.425  0.0000  0.0000  0.0000
    11DUM    Ar 4922   1.175   0.275   2.425  0.0000  0.0000  0.0000
    11DUM    Ar 4923   1.175   0.125   2.575  0.0000  0.0000  0.0000
    11DUM    Ar 4924   1.025   0.275   2.575  0.0000  0.0000  0.0000
    11DUM    Ar 4925   1.325   0.125   2.425  0.0000  0.0000  0.0000
    11DUM    Ar 4926   1.475   0.275   2.425  0.0000  0.0000  0.0000
    11DUM    Ar 4927   1.475   0.125   2.575  0.0000  0.0000  0.0000
    11DUM    Ar 4928   1.325   0.275   2.575  0.0000  0.0000  0.0000
    11DUM    Ar 4929   1.625   0.125   2.425  0.0000  0.0000  0.0000
    11DUM    Ar 4930   1.775   0.275   2.425  0.0000  0.0000  0.0000
    11DUM    Ar 4931   1.775   0.125   2.575  0.0000  0.0000  0.0000
    11DUM    Ar 4932   1.625   0.275   2.575  0.0000  0.0000  0.0000
    11DUM    Ar 4933   1.925   0.125   2.425  0.0000  0.0000  0.0000
    11DUM    Ar 4934   2.075   0.275   2.425  0.0000  0.0000  0.0000
    11DUM    Ar 4935   2.075   0.125   2.575  0.0000  0.0000  0.0000
    11DUM    Ar 4936   1.925   0.275   2.575  0.0000  0.0000  0.0000
    11DUM    Ar 4937   2.225   0.125   2.425  0.0000  0.0000  0.0000
    11DUM    Ar 4938   2.375   0.275   2.425  0.0000  0.0000  0.0000
    11DUM    Ar 4939   2.375   0.125   2.575  0.0000  0.0000  0.0000
    11DUM    Ar 4940   2.225   0.275   2.575  0.0000  0.0000  0.0000
    11DUM    Ar 4941   2.525   0.125   2.425  0.0000  0.0000  0.0000
    11DUM    Ar 4942   2.675   0.275   2.425  0.0000  0.0000  0.0000
    11DUM    Ar 4943   2.675   0.125   2.575  0.0000  0.0000  0.0000
    11DUM    Ar 4944   2.525   0.275   2.575  0.0000  0.0000  0.0000
    11DUM    Ar 4945   2.825   0.125   2.425  0.0000  0.0000  0.0000
    11DUM    Ar 4946   2.975   0.275   2.425  0.0000  0.0000  0.0000
    11DUM    Ar 4947   2.975   0.125   2.575  0.0000  0.0000  0.0000
    11DUM    Ar 4948   2.825   0.275   2.575  0.0000  0.0000  0.0000
    11DUM    Ar 4949   3.125   0.125   2.425  0.0000  0.0000  0.0000
    11DUM    Ar 4950   3.275   0.275   2.425  0.0000  0.0000  0.0000
    11DUM    Ar 4951   3.275   0.125   2.575  0.0000  0.0000  0.0000
    11DUM    Ar 4952   3.125   0.275   2.575  0.0000  0.0000  0.0000
    11DUM    Ar 4953   3.425   0.125   2.425  0.0000  0.0000  0.0000
    11DUM    Ar 4954   3.575   0.275   2.425  0.0000  0.0000  0.0000
    11DUM    Ar 4955   3.575   0.125   2.575  0.0000  0.0000  0.0000
    11DUM    Ar 4956   3.425   0.275   2.575  0.0000  0.0000  0.0000
    11DUM    Ar 4957   3.725   0.125   2.425  0.0000  0.0000  0.0000
    11DUM    Ar 4958   3.875   0.275   2.425  0.0000  0.0000  0.0000
    11DUM    Ar 4959   3.875   0.125   2.575  0.0000  0.0000  0.0000
    11DUM    Ar 4960   3.725   0.275   2.575  0.0000  0.0000  0.0000
    11DUM    Ar 4961   4.025   0.125   2.425  0.0000  0.0000  0.0000
    11DUM    Ar 4962   4.175   0.275   2.425  0.0000  0.0000  0.0000
    11DUM    Ar 4963   4.175   0.125   2.575  0.0000  0.0000  0.0000
    11DUM    Ar 4964   4.025   0.275   2.575  0.0000  0.0000  0.0000
    11DUM    Ar 4965  -0.175   0.425   2.425  0.0000  0.0000  0.0000
    11DUM    Ar 4966  -0.025   0.575   2.425  0.0000  0.0000  0.0000
    11DUM    Ar 4967  -0.025   0.425   2.575  0.0000  0.0000  0.0000
    11DUM    Ar 4968  -0.175   0.575   2.575  0.0000  0.0000  0.0000
    11DUM    Ar 4969   0.125   0.425   2.425  0.0000  0.0000  0.0000
    11DUM    Ar 4970   0.275   0.575   2.425  0.0000  0.0000  0.0000
    11DUM    Ar 4971   0.275   0.425   2.575  0.0000  0.0000  0.0000
    11DUM    Ar 4972   0.125   0.575   2.575  0.0000  0.0000  0.0000
    11DUM    Ar 4973   0.425   0.425   2.425  0.0000  0.0000  0.0000
    11DUM    Ar 4974   0.575   0.425   2.575  0.0000  0.0000  0.0000
    11DUM    Ar 4975   0.425   0.575   2.575  0.0000  0.0000  0.0000
    11DUM    Ar 4976   0.725   0.425   2.425  0.0000  0.0000  0.0000
    11DUM    Ar 4977   1.325   0.425   2.425  0.0000  0.0000  0.0000
    11DUM    Ar 4978   1.475   0.575   2.425  0.0000  0.0000  0.0000
    11DUM    Ar 4979   1.475   0.425   2.575  0.0000  0.0000  0.0000
    11DUM    Ar 4980   1.625   0.425   2.425  0.0000  0.0000  0.0000
    11DUM    Ar 4981   1.775   0.575   2.425  0.0000  0.0000  0.0000
    11DUM    Ar 4982   1.775   0.425   2.575  0.0000  0.0000  0.0000
    11DUM    Ar 4983   1.625   0.575   2.575  0.0000  0.0000  0.0000
    11DUM    Ar 4984   1.925   0.425   2.425  0.0000  0.0000  0.0000
    11DUM    Ar 4985   2.075   0.575   2.425  0.0000  0.0000  0.0000
    11DUM    Ar 4986   2.075   0.425   2.575  0.0000  0.0000  0.0000
    11DUM    Ar 4987   1.925   0.575   2.575  0.0000  0.0000  0.0000
    11DUM    Ar 4988   2.225   0.425   2.425  0.0000  0.0000  0.0000
    11DUM    Ar 4989   2.375   0.575   2.425  0.0000  0.0000  0.0000
    11DUM    Ar 4990   2.375   0.425   2.575  0.0000  0.0000  0.0000
    11DUM    Ar 4991   2.225   0.575   2.575  0.0000  0.0000  0.0000
    11DUM    Ar 4992   2.525   0.425   2.425  0.0000  0.0000  0.0000
    11DUM    Ar 4993   2.675   0.425   2.575  0.0000  0.0000  0.0000
    11DUM    Ar 4994   2.525   0.575   2.575  0.0000  0.0000  0.0000
    11DUM    Ar 4995   3.275   0.425   2.575  0.0000  0.0000  0.0000
    11DUM    Ar 4996   3.425   0.425   2.425  0.0000  0.0000  0.0000
    11DUM    Ar 4997   3.575   0.575   2.425  0.0000  0.0000  0.0000
    11DUM    Ar 4998   3.575   0.425   2.575  0.0000  0.0000  0.0000
    11DUM    Ar 4999   3.725   0.425   2.425  0.0000  0.0000  0.0000
    11DUM    Ar 5000   3.875   0.575   2.425  0.0000  0.0000  0.0000
    11DUM    Ar 5001   3.875   0.425   2.575  0.0000  0.0000  0.0000
    11DUM    Ar 5002   3.725   0.575   2.575  0.0000  0.0000  0.0000
    11DUM    Ar 5003   4.025   0.425   2.425  0.0000  0.0000  0.0000
    11DUM    Ar 5004   4.175   0.575   2.425  0.0000  0.0000  0.0000
    11DUM    Ar 5005   4.175   0.425   2.575  0.0000  0.0000  0.0000
    11DUM    Ar 5006   4.025   0.575   2.575  0.0000  0.0000  0.0000
    11DUM    Ar 5007  -0.175   0.725   2.425  0.0000  0.0000  0.0000
    11DUM    Ar 5008  -0.025   0.875   2.425  0.0000  0.0000  0.0000
    11DUM    Ar 5009  -0.025   0.725   2.575  0.0000  0.0000  0.0000
    11DUM    Ar 5010  -0.175   0.875   2.575  0.0000  0.0000  0.0000
    11DUM    Ar 5011   0.125   0.725   2.425  0.0000  0.0000  0.0000
    11DUM    Ar 5012   0.275   0.875   2.425  0.0000  0.0000  0.0000
    11DUM    Ar 5013   0.275   0.725   2.575  0.0000  0.0000  0.0000
    11DUM    Ar 5014   0.125   0.875   2.575  0.0000  0.0000  0.0000
    11DUM    Ar 5015   0.425   0.725   2.425  0.0000  0.0000  0.0000
    11DUM    Ar 5016   1.625   0.725   2.425  0.0000  0.0000  0.0000
    11DUM    Ar 5017   1.775   0.875   2.425  0.0000  0.0000  0.0000
    11DUM    Ar 5018   1.775   0.725   2.575  0.0000  0.0000  0.0000
    11DUM    Ar 5019   1.625   0.875   2.575  0.0000  0.0000  0.0000
    11DUM    Ar 5020   1.925   0.725   2.425  0.0000  0.0000  0.0000
    11DUM    Ar 5021   2.075   0.875   2.425  0.0000  0.0000  0.0000
    11DUM    Ar 5022   2.075   0.725   2.575  0.0000  0.0000  0.0000
    11DUM    Ar 5023   1.925   0.875   2.575  0.0000  0.0000  0.0000
    11DUM    Ar 5024   2.225   0.725   2.425  0.0000  0.0000  0.0000
    11DUM    Ar 5025   2.375   0.875   2.425  0.0000  0.0000  0.0000
    11DUM    Ar 5026   2.375   0.725   2.575  0.0000  0.0000  0.0000
    11DUM    Ar 5027   2.225   0.875   2.575  0.0000  0.0000  0.0000
    11DUM    Ar 5028   3.575   0.725   2.575  0.0000  0.0000  0.0000
    11DUM    Ar 5029   3.725   0.725   2.425  0.0000  0.0000  0.0000
    11DUM    Ar 5030   3.875   0.875   2.425  0.0000  0.0000  0.0000
    11DUM    Ar 5031   3.875   0.725   2.575  0.0000  0.0000  0.0000
    11DUM    Ar 5032   3.725   0.875   2.575  0.0000  0.0000  0.0000
    11DUM    Ar 5033   4.025   0.725   2.425  0.0000  0.0000  0.0000
    11DUM    Ar 5034   4.175   0.875   2.425  0.0000  0.0000  0.0000
    11DUM    Ar 5035   4.175   0.725   2.575  0.0000  0.0000  0.0000
    11DUM    Ar 5036   4.025   0.875   2.575  0.0000  0.0000  0.0000
    11DUM    Ar 5037  -0.175   1.025   2.425  0.0000  0.0000  0.0000
    11DUM    Ar 5038  -0.025   1.175   2.425  0.0000  0.0000  0.0000
    11DUM    Ar 5039  -0.025   1.025   2.575  0.0000  0.0000  0.0000
    11DUM    Ar 5040  -0.175   1.175   2.575  0.0000  0.0000  0.0000
    11DUM    Ar 5041   0.125   1.025   2.425  0.0000  0.0000  0.0000
    11DUM    Ar 5042   0.275   1.175   2.425  0.0000  0.0000  0.0000
    11DUM    Ar 5043   0.275   1.025   2.575  0.0000  0.0000  0.0000
    11DUM    Ar 5044   0.125   1.175   2.575  0.0000  0.0000  0.0000
    11DUM    Ar 5045   1.625   1.025   2.425  0.0000  0.0000  0.0000
    11DUM    Ar 5046   1.775   1.175   2.425  0.0000  0.0000  0.0000
    11DUM    Ar 5047   1.775   1.025   2.575  0.0000  0.0000  0.0000
    11DUM    Ar 5048   1.625   1.175   2.575  0.0000  0.0000  0.0000
    11DUM    Ar 5049   1.925   1.025   2.425  0.0000  0.0000  0.0000
    11DUM    Ar 5050   2.075   1.175   2.425  0.0000  0.0000  0.0000
    11DUM    Ar 5051   2.075   1.025   2.575  0.0000  0.0000  0.0000
    11DUM    Ar 5052   1.925   1.175   2.575  0.0000  0.0000  0.0000
    11DUM    Ar 5053   2.225   1.025   2.425  0.0000  0.0000  0.0000
    11DUM    Ar 5054   2.375   1.175   2.425  0.0000  0.0000  0.0000
    11DUM    Ar 5055   2.375   1.025   2.575  0.0000  0.0000  0.0000
    11DUM    Ar 5056   2.225   1.175   2.575  0.0000  0.0000  0.0000
    11DUM    Ar 5057   3.725   1.025   2.425  0.0000  0.0000  0.0000
    11DUM    Ar 5058   3.875   1.175   2.425  0.0000  0.0000  0.0000
    11DUM    Ar 5059   3.875   1.025   2.575  0.0000  0.0000  0.0000
    11DUM    Ar 5060   3.725   1.175   2.575  0.0000  0.0000  0.0000
    11DUM    Ar 5061   4.025   1.025   2.425  0.0000  0.0000  0.0000
    11DUM    Ar 5062   4.175   1.175   2.425  0.0000  0.0000  0.0000
    11DUM    Ar 5063   4.175   1.025   2.575  0.0000  0.0000  0.0000
    11DUM    Ar 5064   4.025   1.175   2.575  0.0000  0.0000  0.0000
    11DUM    Ar 5065  -0.175   1.325   2.425  0.0000  0.0000  0.0000
    11DUM    Ar 5066  -0.025   1.475   2.425  0.0000  0.0000  0.0000
    11DUM    Ar 5067  -0.025   1.325   2.575  0.0000  0.0000  0.0000
    11DUM    Ar 5068  -0.175   1.475   2.575  0.0000  0.0000  0.0000
    11DUM    Ar 5069   0.125   1.325   2.425  0.0000  0.0000  0.0000
    11DUM    Ar 5070   0.275   1.475   2.425  0.0000  0.0000  0.0000
    11DUM    Ar 5071   0.275   1.325   2.575  0.0000  0.0000  0.0000
    11DUM    Ar 5072   0.125   1.475   2.575  0.0000  0.0000  0.0000
    11DUM    Ar 5073   0.425   1.325   2.425  0.0000  0.0000  0.0000
    11DUM    Ar 5074   0.575   1.475   2.425  0.0000  0.0000  0.0000
    11DUM    Ar 5075   0.425   1.475   2.575  0.0000  0.0000  0.0000
    11DUM    Ar 5076   1.475   1.475   2.425  0.0000  0.0000  0.0000
    11DUM    Ar 5077   1.625   1.325   2.425  0.0000  0.0000  0.0000
    11DUM    Ar 5078   1.775   1.475   2.425  0.0000  0.0000  0.0000
    11DUM    Ar 5079   1.775   1.325   2.575  0.0000  0.0000  0.0000
    11DUM    Ar 5080   1.625   1.475   2.575  0.0000  0.0000  0.0000
    11DUM    Ar 5081   1.925   1.325   2.425  0.0000  0.0000  0.0000
    11DUM    Ar 5082   2.075   1.475   2.425  0.0000  0.0000  0.0000
    11DUM    Ar 5083   2.075   1.325   2.575  0.0000  0.0000  0.0000
    11DUM    Ar 5084   1.925   1.475   2.575  0.0000  0.0000  0.0000
    11DUM    Ar 5085   2.225   1.325   2.425  0.0000  0.0000  0.0000
    11DUM    Ar 5086   2.375   1.475   2.425  0.0000  0.0000  0.0000
    11DUM    Ar 5087   2.375   1.325   2.575  0.0000  0.0000  0.0000
    11DUM    Ar 5088   2.225   1.475   2.575  0.0000  0.0000  0.0000
    11DUM    Ar 5089   2.525   1.475   2.575  0.0000  0.0000  0.0000
    11DUM    Ar 5090   3.575   1.475   2.425  0.0000  0.0000  0.0000
    11DUM    Ar 5091   3.575   1.325   2.575  0.0000  0.0000  0.0000
    11DUM    Ar 5092   3.425   1.475   2.575  0.0000  0.0000  0.0000
    11DUM    Ar 5093   3.725   1.325   2.425  0.0000  0.0000  0.0000
    11DUM    Ar 5094   3.875   1.475   2.425  0.0000  0.0000  0.0000
    11DUM    Ar 5095   3.875   1.325   2.575  0.0000  0.0000  0.0000
    11DUM    Ar 5096   3.725   1.475   2.575  0.0000  0.0000  0.0000
    11DUM    Ar 5097   4.025   1.325   2.425  0.0000  0.0000  0.0000
    11DUM    Ar 5098   4.175   1.475   2.425  0.0000  0.0000  0.0000
    11DUM    Ar 5099   4.175   1.325   2.575  0.0000  0.0000  0.0000
    11DUM    Ar 5100   4.025   1.475   2.575  0.0000  0.0000  0.0000
    11DUM    Ar 5101  -0.175   1.625   2.425  0.0000  0.0000  0.0000
    11DUM    Ar 5102  -0.025   1.775   2.425  0.0000  0.0000  0.0000
    11DUM    Ar 5103  -0.025   1.625   2.575  0.0000  0.0000  0.0000
    11DUM    Ar 5104  -0.175   1.775   2.575  0.0000  0.0000  0.0000
    11DUM    Ar 5105   0.125   1.625   2.425  0.0000  0.0000  0.0000
    11DUM    Ar 5106   0.275   1.775   2.425  0.0000  0.0000  0.0000
    11DUM    Ar 5107   0.275   1.625   2.575  0.0000  0.0000  0.0000
    11DUM    Ar 5108   0.125   1.775   2.575  0.0000  0.0000  0.0000
    11DUM    Ar 5109   0.425   1.625   2.425  0.0000  0.0000  0.0000
    11DUM    Ar 5110   0.575   1.775   2.425  0.0000  0.0000  0.0000
    11DUM    Ar 5111   0.575   1.625   2.575  0.0000  0.0000  0.0000
    11DUM    Ar 5112   0.425   1.775   2.575  0.0000  0.0000  0.0000
    11DUM    Ar 5113   0.725   1.625   2.425  0.0000  0.0000  0.0000
    11DUM    Ar 5114   0.875   1.775   2.425  0.0000  0.0000  0.0000
    11DUM    Ar 5115   0.875   1.625   2.575  0.0000  0.0000  0.0000
    11DUM    Ar 5116   0.725   1.775   2.575  0.0000  0.0000  0.0000
    11DUM    Ar 5117   1.025   1.625   2.425  0.0000  0.0000  0.0000
    11DUM    Ar 5118   1.175   1.775   2.425  0.0000  0.0000  0.0000
    11DUM    Ar 5119   1.175   1.625   2.575  0.0000  0.0000  0.0000
    11DUM    Ar 5120   1.025   1.775   2.575  0.0000  0.0000  0.0000
    11DUM    Ar 5121   1.325   1.625   2.425  0.0000  0.0000  0.0000
    11DUM    Ar 5122   1.475   1.775   2.425  0.0000  0.0000  0.0000
    11DUM    Ar 5123   1.475   1.625   2.575  0.0000  0.0000  0.0000
    11DUM    Ar 5124   1.325   1.775   2.575  0.0000  0.0000  0.0000
    11DUM    Ar 5125   1.625   1.625   2.425  0.0000  0.0000  0.0000
    11DUM    Ar 5126   1.775   1.775   2.425  0.0000  0.0000  0.0000
    11DUM    Ar 5127   1.775   1.625   2.575  0.0000  0.0000  0.0000
    11DUM    Ar 5128   1.625   1.775   2.575  0.0000  0.0000  0.0000
    11DUM    Ar 5129   1.925   1.625   2.425  0.0000  0.0000  0.0000
    11DUM    Ar 5130   2.075   1.775   2.425  0.0000  0.0000  0.0000
    11DUM    Ar 5131   2.075   1.625   2.575  0.0000  0.0000  0.0000
    11DUM    Ar 5132   1.925   1.775   2.575  0.0000  0.0000  0.0000
    11DUM    Ar 5133   2.225   1.625   2.425  0.0000  0.0000  0.0000
    11DUM    Ar 5134   2.375   1.775   2.425  0.0000  0.0000  0.0000
    11DUM    Ar 5135   2.375   1.625   2.575  0.0000  0.0000  0.0000
    11DUM    Ar 5136   2.225   1.775   2.575  0.0000  0.0000  0.0000
    11DUM    Ar 5137   2.525   1.625   2.425  0.0000  0.0000  0.0000
    11DUM    Ar 5138   2.675   1.775   2.425  0.0000  0.0000  0.0000
    11DUM    Ar 5139   2.675   1.625   2.575  0.0000  0.0000  0.0000
    11DUM    Ar 5140   2.525   1.775   2.575  0.0000  0.0000  0.0000
    11DUM    Ar 5141   2.825   1.625   2.425  0.0000  0.0000  0.0000
    11DUM    Ar 5142   2.975   1.775   2.425  0.0000  0.0000  0.0000
    11DUM    Ar 5143   2.975   1.625   2.575  0.0000  0.0000  0.0000
    11DUM    Ar 5144   2.825   1.775   2.575  0.0000  0.0000  0.0000
    11DUM    Ar 5145   3.125   1.625   2.425  0.0000  0.0000  0.0000
    11DUM    Ar 5146   3.275   1.775   2.425  0.0000  0.0000  0.0000
    11DUM    Ar 5147   3.275   1.625   2.575  0.0000  0.0000  0.0000
    11DUM    Ar 5148   3.125   1.775   2.575  0.0000  0.0000  0.0000
    11DUM    Ar 5149   3.425   1.625   2.425  0.0000  0.0000  0.0000
    11DUM    Ar 5150   3.575   1.775   2.425  0.0000  0.0000  0.0000
    11DUM    Ar 5151   3.575   1.625   2.575  0.0000  0.0000  0.0000
    11DUM    Ar 5152   3.425   1.775   2.575  0.0000  0.0000  0.0000
    11DUM    Ar 5153   3.725   1.625   2.425  0.0000  0.0000  0.0000
    11DUM    Ar 5154   3.875   1.775   2.425  0.0000  0.0000  0.0000
    11DUM    Ar 5155   3.875   1.625   2.575  0.0000  0.0000  0.0000
    11DUM    Ar 5156   3.725   1.775   2.575  0.0000  0.0000  0.0000
    11DUM    Ar 5157   4.025   1.625   2.425  0.0000  0.0000  0.0000
    11DUM    Ar 5158   4.175   1.775   2.425  0.0000  0.0000  0.0000
    11DUM    Ar 5159   4.175   1.625   2.575  0.0000  0.0000  0.0000
    11DUM    Ar 5160   4.025   1.775   2.575  0.0000  0.0000  0.0000
    11DUM    Ar 5161  -0.175   1.925   2.425  0.0000  0.0000  0.0000
    11DUM    Ar 5162  -0.025   2.075   2.425  0.0000  0.0000  0.0000
    11DUM    Ar 5163  -0.025   1.925   2.575  0.0000  0.0000  0.0000
    11DUM    Ar 5164  -0.175   2.075   2.575  0.0000  0.0000  0.0000
    11DUM    Ar 5165   0.125   1.925   2.425  0.0000  0.0000  0.0000
    11DUM    Ar 5166   0.275   2.075   2.425  0.0000  0.0000  0.0000
    11DUM    Ar 5167   0.275   1.925   2.575  0.0000  0.0000  0.0000
    11DUM    Ar 5168   0.125   2.075   2.575  0.0000  0.0000  0.0000
    11DUM    Ar 5169   0.425   1.925   2.425  0.0000  0.0000  0.0000
    11DUM    Ar 5170   0.575   2.075   2.425  0.0000  0.0000  0.0000
    11DUM    Ar 5171   0.575   1.925   2.575  0.0000  0.0000  0.0000
    11DUM    Ar 5172   0.425   2.075   2.575  0.0000  0.0000  0.0000
    11DUM    Ar 5173   0.725   1.925   2.425  0.0000  0.0000  0.0000
    11DUM    Ar 5174   0.875   2.075   2.425  0.0000  0.0000  0.0000
    11DUM    Ar 5175   0.875   1.925   2.575  0.0000  0.0000  0.0000
    11DUM    Ar 5176   0.725   2.075   2.575  0.0000  0.0000  0.0000
    11DUM    Ar 5177   1.025   1.925   2.425  0.0000  0.0000  0.0000
    11DUM    Ar 5178   1.175   2.075   2.425  0.0000  0.0000  0.0000
    11DUM    Ar 5179   1.175   1.925   2.575  0.0000  0.0000  0.0000
    11DUM    Ar 5180   1.025   2.075   2.575  0.0000  0.0000  0.0000
    11DUM    Ar 5181   1.325   1.925   2.425  0.0000  0.0000  0.0000
    11DUM    Ar 5182   1.475   2.075   2.425  0.0000  0.0000  0.0000
    11DUM    Ar 5183   1.475   1.925   2.575  0.0000  0.0000  0.0000
    11DUM    Ar 5184   1.325   2.075   2.575  0.0000  0.0000  0.0000
    11DUM    Ar 5185   1.625   1.925   2.425  0.0000  0.0000  0.0000
    11DUM    Ar 5186   1.775   2.075   2.425  0.0000  0.0000  0.0000
    11DUM    Ar 5187   1.775   1.925   2.575  0.0000  0.0000  0.0000
    11DUM    Ar 5188   1.625   2.075   2.575  0.0000  0.0000  0.0000
    11DUM    Ar 5189   1.925   1.925   2.425  0.0000  0.0000  0.0000
    11DUM    Ar 5190   2.075   2.075   2.425  0.0000  0.0000  0.0000
    11DUM    Ar 5191   2.075   1.925   2.575  0.0000  0.0000  0.0000
    11DUM    Ar 5192   1.925   2.075   2.575  0.0000  0.0000  0.0000
    11DUM    Ar 5193   2.225   1.925   2.425  0.0000  0.0000  0.0000
    11DUM    Ar 5194   2.375   2.075   2.425  0.0000  0.0000  0.0000
    11DUM    Ar 5195   2.375   1.925   2.575  0.0000  0.0000  0.0000
    11DUM    Ar 5196   2.225   2.075   2.575  0.0000  0.0000  0.0000
    11DUM    Ar 5197   2.525   1.925   2.425  0.0000  0.0000  0.0000
    11DUM    Ar 5198   2.675   2.075   2.425  0.0000  0.0000  0.0000
    11DUM    Ar 5199   2.675   1.925   2.575  0.0000  0.0000  0.0000
    11DUM    Ar 5200   2.525   2.075   2.575  0.0000  0.0000  0.0000
    11DUM    Ar 5201   2.825   1.925   2.425  0.0000  0.0000  0.0000
    11DUM    Ar 5202   2.975   2.075   2.425  0.0000  0.0000  0.0000
    11DUM    Ar 5203   2.975   1.925   2.575  0.0000  0.0000  0.0000
    11DUM    Ar 5204   2.825   2.075   2.575  0.0000  0.0000  0.0000
    11DUM    Ar 5205   3.125   1.925   2.425  0.0000  0.0000  0.0000
    11DUM    Ar 5206   3.275   2.075   2.425  0.0000  0.0000  0.0000
    11DUM    Ar 5207   3.275   1.925   2.575  0.0000  0.0000  0.0000
    11DUM    Ar 5208   3.125   2.075   2.575  0.0000  0.0000  0.0000
    11DUM    Ar 5209   3.425   1.925   2.425  0.0000  0.0000  0.0000
    11DUM    Ar 5210   3.575   2.075   2.425  0.0000  0.0000  0.0000
    11DUM    Ar 5211   3.575   1.925   2.575  0.0000  0.0000  0.0000
    11DUM    Ar 5212   3.425   2.075   2.575  0.0000  0.0000  0.0000
    11DUM    Ar 5213   3.725   1.925   2.425  0.0000  0.0000  0.0000
    11DUM    Ar 5214   3.875   2.075   2.425  0.0000  0.0000  0.0000
    11DUM    Ar 5215   3.875   1.925   2.575  0.0000  0.0000  0.0000
    11DUM    Ar 5216   3.725   2.075   2.575  0.0000  0.0000  0.0000
    11DUM    Ar 5217   4.025   1.925   2.425  0.0000  0.0000  0.0000
    11DUM    Ar 5218   4.175   2.075   2.425  0.0000  0.0000  0.0000
    11DUM    Ar 5219   4.175   1.925   2.575  0.0000  0.0000  0.0000
    11DUM    Ar 5220   4.025   2.075   2.575  0.0000  0.0000  0.0000
    11DUM    Ar 5221  -0.175   2.225   2.425  0.0000  0.0000  0.0000
    11DUM    Ar 5222  -0.025   2.375   2.425  0.0000  0.0000  0.0000
    11DUM    Ar 5223  -0.025   2.225   2.575  0.0000  0.0000  0.0000
    11DUM    Ar 5224  -0.175   2.375   2.575  0.0000  0.0000  0.0000
    11DUM    Ar 5225   0.125   2.225   2.425  0.0000  0.0000  0.0000
    11DUM    Ar 5226   0.275   2.375   2.425  0.0000  0.0000  0.0000
    11DUM    Ar 5227   0.275   2.225   2.575  0.0000  0.0000  0.0000
    11DUM    Ar 5228   0.125   2.375   2.575  0.0000  0.0000  0.0000
    11DUM    Ar 5229   0.425   2.225   2.425  0.0000  0.0000  0.0000
    11DUM    Ar 5230   0.575   2.375   2.425  0.0000  0.0000  0.0000
    11DUM    Ar 5231   0.575   2.225   2.575  0.0000  0.0000  0.0000
    11DUM    Ar 5232   0.425   2.375   2.575  0.0000  0.0000  0.0000
    11DUM    Ar 5233   0.725   2.225   2.425  0.0000  0.0000  0.0000
    11DUM    Ar 5234   0.875   2.375   2.425  0.0000  0.0000  0.0000
    11DUM    Ar 5235   0.875   2.225   2.575  0.0000  0.0000  0.0000
    11DUM    Ar 5236   0.725   2.375   2.575  0.0000  0.0000  0.0000
    11DUM    Ar 5237   1.025   2.225   2.425  0.0000  0.0000  0.0000
    11DUM    Ar 5238   1.175   2.375   2.425  0.0000  0.0000  0.0000
    11DUM    Ar 5239   1.175   2.225   2.575  0.0000  0.0000  0.0000
    11DUM    Ar 5240   1.025   2.375   2.575  0.0000  0.0000  0.0000
    11DUM    Ar 5241   1.325   2.225   2.425  0.0000  0.0000  0.0000
    11DUM    Ar 5242   1.475   2.375   2.425  0.0000  0.0000  0.0000
    11DUM    Ar 5243   1.475   2.225   2.575  0.0000  0.0000  0.0000
    11DUM    Ar 5244   1.325   2.375   2.575  0.0000  0.0000  0.0000
    11DUM    Ar 5245   1.625   2.225   2.425  0.0000  0.0000  0.0000
    11DUM    Ar 5246   1.775   2.375   2.425  0.0000  0.0000  0.0000
    11DUM    Ar 5247   1.775   2.225   2.575  0.0000  0.0000  0.0000
    11DUM    Ar 5248   1.625   2.375   2.575  0.0000  0.0000  0.0000
    11DUM    Ar 5249   1.925   2.225   2.425  0.0000  0.0000  0.0000
    11DUM    Ar 5250   2.075   2.375   2.425  0.0000  0.0000  0.0000
    11DUM    Ar 5251   2.075   2.225   2.575  0.0000  0.0000  0.0000
    11DUM    Ar 5252   1.925   2.375   2.575  0.0000  0.0000  0.0000
    11DUM    Ar 5253   2.225   2.225   2.425  0.0000  0.0000  0.0000
    11DUM    Ar 5254   2.375   2.375   2.425  0.0000  0.0000  0.0000
    11DUM    Ar 5255   2.375   2.225   2.575  0.0000  0.0000  0.0000
    11DUM    Ar 5256   2.225   2.375   2.575  0.0000  0.0000  0.0000
    11DUM    Ar 5257   2.525   2.225   2.425  0.0000  0.0000  0.0000
    11DUM    Ar 5258   2.675   2.375   2.425  0.0000  0.0000  0.0000
    11DUM    Ar 5259   2.675   2.225   2.575  0.0000  0.0000  0.0000
    11DUM    Ar 5260   2.525   2.375   2.575  0.0000  0.0000  0.0000
    11DUM    Ar 5261   2.825   2.225   2.425  0.0000  0.0000  0.0000
    11DUM    Ar 5262   2.975   2.375   2.425  0.0000  0.0000  0.0000
    11DUM    Ar 5263   2.975   2.225   2.575  0.0000  0.0000  0.0000
    11DUM    Ar 5264   2.825   2.375   2.575  0.0000  0.0000  0.0000
    11DUM    Ar 5265   3.125   2.225   2.425  0.0000  0.0000  0.0000
    11DUM    Ar 5266   3.275   2.375   2.425  0.0000  0.0000  0.0000
    11DUM    Ar 5267   3.275   2.225   2.575  0.0000  0.0000  0.0000
    11DUM    Ar 5268   3.125   2.375   2.575  0.0000  0.0000  0.0000
    11DUM    Ar 5269   3.425   2.225   2.425  0.0000  0.0000  0.0000
    11DUM    Ar 5270   3.575   2.375   2.425  0.0000  0.0000  0.0000
    11DUM    Ar 5271   3.575   2.225   2.575  0.0000  0.0000  0.0000
    11DUM    Ar 5272   3.425   2.375   2.575  0.0000  0.0000  0.0000
    11DUM    Ar 5273   3.725   2.225   2.425  0.0000  0.0000  0.0000
    11DUM    Ar 5274   3.875   2.375   2.425  0.0000  0.0000  0.0000
    11DUM    Ar 5275   3.875   2.225   2.575  0.0000  0.0000  0.0000
    11DUM    Ar 5276   3.725   2.375   2.575  0.0000  0.0000  0.0000
    11DUM    Ar 5277   4.025   2.225   2.425  0.0000  0.0000  0.0000
    11DUM    Ar 5278   4.175   2.375   2.425  0.0000  0.0000  0.0000
    11DUM    Ar 5279   4.175   2.225   2.575  0.0000  0.0000  0.0000
    11DUM    Ar 5280   4.025   2.375   2.575  0.0000  0.0000  0.0000
    11DUM    Ar 5281  -0.175   2.525   2.425  0.0000  0.0000  0.0000
    11DUM    Ar 5282  -0.025   2.675   2.425  0.0000  0.0000  0.0000
    11DUM    Ar 5283  -0.025   2.525   2.575  0.0000  0.0000  0.0000
    11DUM    Ar 5284  -0.175   2.675   2.575  0.0000  0.0000  0.0000
    11DUM    Ar 5285   0.125   2.525   2.425  0.0000  0.0000  0.0000
    11DUM    Ar 5286   0.275   2.675   2.425  0.0000  0.0000  0.0000
    11DUM    Ar 5287   0.275   2.525   2.575  0.0000  0.0000  0.0000
    11DUM    Ar 5288   0.125   2.675   2.575  0.0000  0.0000  0.0000
    11DUM    Ar 5289   0.425   2.525   2.425  0.0000  0.0000  0.0000
    11DUM    Ar 5290   0.575   2.525   2.575  0.0000  0.0000  0.0000
    11DUM    Ar 5291   0.425   2.675   2.575  0.0000  0.0000  0.0000
    11DUM    Ar 5292   1.475   2.525   2.575  0.0000  0.0000  0.0000
    11DUM    Ar 5293   1.625   2.525   2.425  0.0000  0.0000  0.0000
    11DUM    Ar 5294   1.775   2.675   2.425  0.0000  0.0000  0.0000
    11DUM    Ar 5295   1.775   2.525   2.575  0.0000  0.0000  0.0000
    11DUM    Ar 5296   1.625   2.675   2.575  0.0000  0.0000  0.0000
    11DUM    Ar 5297   1.925   2.525   2.425  0.0000  0.0000  0.0000
    11DUM    Ar 5298   2.075   2.675   2.425  0.0000  0.0000  0.0000
    11DUM    Ar 5299   2.075   2.525   2.575  0.0000  0.0000  0.0000
    11DUM    Ar 5300   1.925   2.675   2.575  0.0000  0.0000  0.0000
    11DUM    Ar 5301   2.225   2.525   2.425  0.0000  0.0000  0.0000
    11DUM    Ar 5302   2.375   2.675   2.425  0.0000  0.0000  0.0000
    11DUM    Ar 5303   2.375   2.525   2.575  0.0000  0.0000  0.0000
    11DUM    Ar 5304   2.225   2.675   2.575  0.0000  0.0000  0.0000
    11DUM    Ar 5305   2.525   2.525   2.425  0.0000  0.0000  0.0000
    11DUM    Ar 5306   3.425   2.525   2.425  0.0000  0.0000  0.0000
    11DUM    Ar 5307   3.575   2.675   2.425  0.0000  0.0000  0.0000
    11DUM    Ar 5308   3.575   2.525   2.575  0.0000  0.0000  0.0000
    11DUM    Ar 5309   3.725   2.525   2.425  0.0000  0.0000  0.0000
    11DUM    Ar 5310   3.875   2.675   2.425  0.0000  0.0000  0.0000
    11DUM    Ar 5311   3.875   2.525   2.575  0.0000  0.0000  0.0000
    11DUM    Ar 5312   3.725   2.675   2.575  0.0000  0.0000  0.0000
    11DUM    Ar 5313   4.025   2.525   2.425  0.0000  0.0000  0.0000
    11DUM    Ar 5314   4.175   2.675   2.425  0.0000  0.0000  0.0000
    11DUM    Ar 5315   4.175   2.525   2.575  0.0000  0.0000  0.0000
    11DUM    Ar 5316   4.025   2.675   2.575  0.0000  0.0000  0.0000
    11DUM    Ar 5317  -0.175   2.825   2.425  0.0000  0.0000  0.0000
    11DUM    Ar 5318  -0.025   2.975   2.425  0.0000  0.0000  0.0000
    11DUM    Ar 5319  -0.025   2.825   2.575  0.0000  0.0000  0.0000
    11DUM    Ar 5320  -0.175   2.975   2.575  0.0000  0.0000  0.0000
    11DUM    Ar 5321   0.125   2.825   2.425  0.0000  0.0000  0.0000
    11DUM    Ar 5322   0.275   2.975   2.425  0.0000  0.0000  0.0000
    11DUM    Ar 5323   0.275   2.825   2.575  0.0000  0.0000  0.0000
    11DUM    Ar 5324   0.125   2.975   2.575  0.0000  0.0000  0.0000
    11DUM    Ar 5325   1.625   2.825   2.425  0.0000  0.0000  0.0000
    11DUM    Ar 5326   1.775   2.975   2.425  0.0000  0.0000  0.0000
    11DUM    Ar 5327   1.775   2.825   2.575  0.0000  0.0000  0.0000
    11DUM    Ar 5328   1.625   2.975   2.575  0.0000  0.0000  0.0000
    11DUM    Ar 5329   1.925   2.825   2.425  0.0000  0.0000  0.0000
    11DUM    Ar 5330   2.075   2.975   2.425  0.0000  0.0000  0.0000
    11DUM    Ar 5331   2.075   2.825   2.575  0.0000  0.0000  0.0000
    11DUM    Ar 5332   1.925   2.975   2.575  0.0000  0.0000  0.0000
    11DUM    Ar 5333   2.225   2.825   2.425  0.0000  0.0000  0.0000
    11DUM    Ar 5334   2.375   2.975   2.425  0.0000  0.0000  0.0000
    11DUM    Ar 5335   2.375   2.825   2.575  0.0000  0.0000  0.0000
    11DUM    Ar 5336   2.225   2.975   2.575  0.0000  0.0000  0.0000
    11DUM    Ar 5337   3.725   2.825   2.425  0.0000  0.0000  0.0000
    11DUM    Ar 5338   3.875   2.975   2.425  0.0000  0.0000  0.0000
    11DUM    Ar 5339   3.875   2.825   2.575  0.0000  0.0000  0.0000
    11DUM    Ar 5340   3.725   2.975   2.575  0.0000  0.0000  0.0000
    11DUM    Ar 5341   4.025   2.825   2.425  0.0000  0.0000  0.0000
    11DUM    Ar 5342   4.175   2.975   2.425  0.0000  0.0000  0.0000
    11DUM    Ar 5343   4.175   2.825   2.575  0.0000  0.0000  0.0000
    11DUM    Ar 5344   4.025   2.975   2.575  0.0000  0.0000  0.0000
    11DUM    Ar 5345  -0.175   3.125   2.425  0.0000  0.0000  0.0000
    11DUM    Ar 5346  -0.025   3.275   2.425  0.0000  0.0000  0.0000
    11DUM    Ar 5347  -0.025   3.125   2.575  0.0000  0.0000  0.0000
    11DUM    Ar 5348  -0.175   3.275   2.575  0.0000  0.0000  0.0000
    11DUM    Ar 5349   0.125   3.125   2.425  0.0000  0.0000  0.0000
    11DUM    Ar 5350   0.275   3.275   2.425  0.0000  0.0000  0.0000
    11DUM    Ar 5351   0.275   3.125   2.575  0.0000  0.0000  0.0000
    11DUM    Ar 5352   0.125   3.275   2.575  0.0000  0.0000  0.0000
    11DUM    Ar 5353   0.425   3.275   2.575  0.0000  0.0000  0.0000
    11DUM    Ar 5354   1.625   3.125   2.425  0.0000  0.0000  0.0000
    11DUM    Ar 5355   1.775   3.275   2.425  0.0000  0.0000  0.0000
    11DUM    Ar 5356   1.775   3.125   2.575  0.0000  0.0000  0.0000
    11DUM    Ar 5357   1.625   3.275   2.575  0.0000  0.0000  0.0000
    11DUM    Ar 5358   1.925   3.125   2.425  0.0000  0.0000  0.0000
    11DUM    Ar 5359   2.075   3.275   2.425  0.0000  0.0000  0.0000
    11DUM    Ar 5360   2.075   3.125   2.575  0.0000  0.0000  0.0000
    11DUM    Ar 5361   1.925   3.275   2.575  0.0000  0.0000  0.0000
    11DUM    Ar 5362   2.225   3.125   2.425  0.0000  0.0000  0.0000
    11DUM    Ar 5363   2.375   3.275   2.425  0.0000  0.0000  0.0000
    11DUM    Ar 5364   2.375   3.125   2.575  0.0000  0.0000  0.0000
    11DUM    Ar 5365   2.225   3.275   2.575  0.0000  0.0000  0.0000
    11DUM    Ar 5366   3.575   3.275   2.425  0.0000  0.0000  0.0000
    11DUM    Ar 5367   3.725   3.125   2.425  0.0000  0.0000  0.0000
    11DUM    Ar 5368   3.875   3.275   2.425  0.0000  0.0000  0.0000
    11DUM    Ar 5369   3.875   3.125   2.575  0.0000  0.0000  0.0000
    11DUM    Ar 5370   3.725   3.275   2.575  0.0000  0.0000  0.0000
    11DUM    Ar 5371   4.025   3.125   2.425  0.0000  0.0000  0.0000
    11DUM    Ar 5372   4.175   3.275   2.425  0.0000  0.0000  0.0000
    11DUM    Ar 5373   4.175   3.125   2.575  0.0000  0.0000  0.0000
    11DUM    Ar 5374   4.025   3.275   2.575  0.0000  0.0000  0.0000
    11DUM    Ar 5375  -0.175   3.425   2.425  0.0000  0.0000  0.0000
    11DUM    Ar 5376  -0.025   3.575   2.425  0.0000  0.0000  0.0000
    11DUM    Ar 5377  -0.025   3.425   2.575  0.0000  0.0000  0.0000
    11DUM    Ar 5378  -0.175   3.575   2.575  0.0000  0.0000  0.0000
    11DUM    Ar 5379   0.125   3.425   2.425  0.0000  0.0000  0.0000
    11DUM    Ar 5380   0.275   3.575   2.425  0.0000  0.0000  0.0000
    11DUM    Ar 5381   0.275   3.425   2.575  0.0000  0.0000  0.0000
    11DUM    Ar 5382   0.125   3.575   2.575  0.0000  0.0000  0.0000
    11DUM    Ar 5383   0.425   3.425   2.425  0.0000  0.0000  0.0000
    11DUM    Ar 5384   0.575   3.575   2.425  0.0000  0.0000  0.0000
    11DUM    Ar 5385   0.425   3.575   2.575  0.0000  0.0000  0.0000
    11DUM    Ar 5386   0.725   3.575   2.575  0.0000  0.0000  0.0000
    11DUM    Ar 5387   1.475   3.575   2.425  0.0000  0.0000  0.0000
    11DUM    Ar 5388   1.475   3.425   2.575  0.0000  0.0000  0.0000
    11DUM    Ar 5389   1.325   3.575   2.575  0.0000  0.0000  0.0000
    11DUM    Ar 5390   1.625   3.425   2.425  0.0000  0.0000  0.0000
    11DUM    Ar 5391   1.775   3.575   2.425  0.0000  0.0000  0.0000
    11DUM    Ar 5392   1.775   3.425   2.575  0.0000  0.0000  0.0000
    11DUM    Ar 5393   1.625   3.575   2.575  0.0000  0.0000  0.0000
    11DUM    Ar 5394   1.925   3.425   2.425  0.0000  0.0000  0.0000
    11DUM    Ar 5395   2.075   3.575   2.425  0.0000  0.0000  0.0000
    11DUM    Ar 5396   2.075   3.425   2.575  0.0000  0.0000  0.0000
    11DUM    Ar 5397   1.925   3.575   2.575  0.0000  0.0000  0.0000
    11DUM    Ar 5398   2.225   3.425   2.425  0.0000  0.0000  0.0000
    11DUM    Ar 5399   2.375   3.575   2.425  0.0000  0.0000  0.0000
    11DUM    Ar 5400   2.375   3.425   2.575  0.0000  0.0000  0.0000
    11DUM    Ar 5401   2.225   3.575   2.575  0.0000  0.0000  0.0000
    11DUM    Ar 5402   2.525   3.425   2.425  0.0000  0.0000  0.0000
    11DUM    Ar 5403   2.675   3.575   2.425  0.0000  0.0000  0.0000
    11DUM    Ar 5404   2.525   3.575   2.575  0.0000  0.0000  0.0000
    11DUM    Ar 5405   3.275   3.575   2.425  0.0000  0.0000  0.0000
    11DUM    Ar 5406   3.575   3.575   2.425  0.0000  0.0000  0.0000
    11DUM    Ar 5407   3.575   3.425   2.575  0.0000  0.0000  0.0000
    11DUM    Ar 5408   3.425   3.575   2.575  0.0000  0.0000  0.0000
    11DUM    Ar 5409   3.725   3.425   2.425  0.0000  0.0000  0.0000
    11DUM    Ar 5410   3.875   3.575   2.425  0.0000  0.0000  0.0000
    11DUM    Ar 5411   3.875   3.425   2.575  0.0000  0.0000  0.0000
    11DUM    Ar 5412   3.725   3.575   2.575  0.0000  0.0000  0.0000
    11DUM    Ar 5413   4.025   3.425   2.425  0.0000  0.0000  0.0000
    11DUM    Ar 5414   4.175   3.575   2.425  0.0000  0.0000  0.0000
    11DUM    Ar 5415   4.175   3.425   2.575  0.0000  0.0000  0.0000
    11DUM    Ar 5416   4.025   3.575   2.575  0.0000  0.0000  0.0000
    11DUM    Ar 5417  -0.175   3.725   2.425  0.0000  0.0000  0.0000
    11DUM    Ar 5418  -0.025   3.875   2.425  0.0000  0.0000  0.0000
    11DUM    Ar 5419  -0.025   3.725   2.575  0.0000  0.0000  0.0000
    11DUM    Ar 5420  -0.175   3.875   2.575  0.0000  0.0000  0.0000
    11DUM    Ar 5421   0.125   3.725   2.425  0.0000  0.0000  0.0000
    11DUM    Ar 5422   0.275   3.875   2.425  0.0000  0.0000  0.0000
    11DUM    Ar 5423   0.275   3.725   2.575  0.0000  0.0000  0.0000
    11DUM    Ar 5424   0.125   3.875   2.575  0.0000  0.0000  0.0000
    11DUM    Ar 5425   0.425   3.725   2.425  0.0000  0.0000  0.0000
    11DUM    Ar 5426   0.575   3.875   2.425  0.0000  0.0000  0.0000
    11DUM    Ar 5427   0.575   3.725   2.575  0.0000  0.0000  0.0000
    11DUM    Ar 5428   0.425   3.875   2.575  0.0000  0.0000  0.0000
    11DUM    Ar 5429   0.725   3.725   2.425  0.0000  0.0000  0.0000
    11DUM    Ar 5430   0.875   3.875   2.425  0.0000  0.0000  0.0000
    11DUM    Ar 5431   0.875   3.725   2.575  0.0000  0.0000  0.0000
    11DUM    Ar 5432   0.725   3.875   2.575  0.0000  0.0000  0.0000
    11DUM    Ar 5433   1.025   3.725   2.425  0.0000  0.0000  0.0000
    11DUM    Ar 5434   1.175   3.875   2.425  0.0000  0.0000  0.0000
    11DUM    Ar 5435   1.175   3.725   2.575  0.0000  0.0000  0.0000
    11DUM    Ar 5436   1.025   3.875   2.575  0.0000  0.0000  0.0000
    11DUM    Ar 5437   1.325   3.725   2.425  0.0000  0.0000  0.0000
    11DUM    Ar 5438   1.475   3.875   2.425  0.0000  0.0000  0.0000
    11DUM    Ar 5439   1.475   3.725   2.575  0.0000  0.0000  0.0000
    11DUM    Ar 5440   1.325   3.875   2.575  0.0000  0.0000  0.0000
    11DUM    Ar 5441   1.625   3.725   2.425  0.0000  0.0000  0.0000
    11DUM    Ar 5442   1.775   3.875   2.425  0.0000  0.0000  0.0000
    11DUM    Ar 5443   1.775   3.725   2.575  0.0000  0.0000  0.0000
    11DUM    Ar 5444   1.625   3.875   2.575  0.0000  0.0000  0.0000
    11DUM    Ar 5445   1.925   3.725   2.425  0.0000  0.0000  0.0000
    11DUM    Ar 5446   2.075   3.875   2.425  0.0000  0.0000  0.0000
    11DUM    Ar 5447   2.075   3.725   2.575  0.0000  0.0000  0.0000
    11DUM    Ar 5448   1.925   3.875   2.575  0.0000  0.0000  0.0000
    11DUM    Ar 5449   2.225   3.725   2.425  0.0000  0.0000  0.0000
    11DUM    Ar 5450   2.375   3.875   2.425  0.0000  0.0000  0.0000
    11DUM    Ar 5451   2.375   3.725   2.575  0.0000  0.0000  0.0000
    11DUM    Ar 5452   2.225   3.875   2.575  0.0000  0.0000  0.0000
    11DUM    Ar 5453   2.525   3.725   2.425  0.0000  0.0000  0.0000
    11DUM    Ar 5454   2.675   3.875   2.425  0.0000  0.0000  0.0000
    11DUM    Ar 5455   2.675   3.725   2.575  0.0000  0.0000  0.0000
    11DUM    Ar 5456   2.525   3.875   2.575  0.0000  0.0000  0.0000
    11DUM    Ar 5457   2.825   3.725   2.425  0.0000  0.0000  0.0000
    11DUM    Ar 5458   2.975   3.875   2.425  0.0000  0.0000  0.0000
    11DUM    Ar 5459   2.975   3.725   2.575  0.0000  0.0000  0.0000
    11DUM    Ar 5460   2.825   3.875   2.575  0.0000  0.0000  0.0000
    11DUM    Ar 5461   3.125   3.725   2.425  0.0000  0.0000  0.0000
    11DUM    Ar 5462   3.275   3.875   2.425  0.0000  0.0000  0.0000
    11DUM    Ar 5463   3.275   3.725   2.575  0.0000  0.0000  0.0000
    11DUM    Ar 5464   3.125   3.875   2.575  0.0000  0.0000  0.0000
    11DUM    Ar 5465   3.425   3.725   2.425  0.0000  0.0000  0.0000
    11DUM    Ar 5466   3.575   3.875   2.425  0.0000  0.0000  0.0000
    11DUM    Ar 5467   3.575   3.725   2.575  0.0000  0.0000  0.0000
    11DUM    Ar 5468   3.425   3.875   2.575  0.0000  0.0000  0.0000
    11DUM    Ar 5469   3.725   3.725   2.425  0.0000  0.0000  0.0000
    11DUM    Ar 5470   3.875   3.875   2.425  0.0000  0.0000  0.0000
    11DUM    Ar 5471   3.875   3.725   2.575  0.0000  0.0000  0.0000
    11DUM    Ar 5472   3.725   3.875   2.575  0.0000  0.0000  0.0000
    11DUM    Ar 5473   4.025   3.725   2.425  0.0000  0.0000  0.0000
    11DUM    Ar 5474   4.175   3.875   2.425  0.0000  0.0000  0.0000
    11DUM    Ar 5475   4.175   3.725   2.575  0.0000  0.0000  0.0000
    11DUM    Ar 5476   4.025   3.875   2.575  0.0000  0.0000  0.0000
    11DUM    Ar 5477  -0.175   4.025   2.425  0.0000  0.0000  0.0000
    11DUM    Ar 5478  -0.025   4.175   2.425  0.0000  0.0000  0.0000
    11DUM    Ar 5479  -0.025   4.025   2.575  0.0000  0.0000  0.0000
    11DUM    Ar 5480  -0.175   4.175   2.575  0.0000  0.0000  0.0000
    11DUM    Ar 5481   0.125   4.025   2.425  0.0000  0.0000  0.0000
    11DUM    Ar 5482   0.275   4.175   2.425  0.0000  0.0000  0.0000
    11DUM    Ar 5483   0.275   4.025   2.575  0.0000  0.0000  0.0000
    11DUM    Ar 5484   0.125   4.175   2.575  0.0000  0.0000  0.0000
    11DUM    Ar 5485   0.425   4.025   2.425  0.0000  0.0000  0.0000
    11DUM    Ar 5486   0.575   4.175   2.425  0.0000  0.0000  0.0000
    11DUM    Ar 5487   0.575   4.025   2.575  0.0000  0.0000  0.0000
    11DUM    Ar 5488   0.425   4.175   2.575  0.0000  0.0000  0.0000
    11DUM    Ar 5489   0.725   4.025   2.425  0.0000  0.0000  0.0000
    11DUM    Ar 5490   0.875   4.175   2.425  0.0000  0.0000  0.0000
    11DUM    Ar 5491   0.875   4.025   2.575  0.0000  0.0000  0.0000
    11DUM    Ar 5492   0.725   4.175   2.575  0.0000  0.0000  0.0000
    11DUM    Ar 5493   1.025   4.025   2.425  0.0000  0.0000  0.0000
    11DUM    Ar 5494   1.175   4.175   2.425  0.0000  0.0000  0.0000
    11DUM    Ar 5495   1.175   4.025   2.575  0.0000  0.0000  0.0000
    11DUM    Ar 5496   1.025   4.175   2.575  0.0000  0.0000  0.0000
    11DUM    Ar 5497   1.325   4.025   2.425  0.0000  0.0000  0.0000
    11DUM    Ar 5498   1.475   4.175   2.425  0.0000  0.0000  0.0000
    11DUM    Ar 5499   1.475   4.025   2.575  0.0000  0.0000  0.0000
    11DUM    Ar 5500   1.325   4.175   2.575  0.0000  0.0000  0.0000
    11DUM    Ar 5501   1.625   4.025   2.425  0.0000  0.0000  0.0000
    11DUM    Ar 5502   1.775   4.175   2.425  0.0000  0.0000  0.0000
    11DUM    Ar 5503   1.775   4.025   2.575  0.0000  0.0000  0.0000
    11DUM    Ar 5504   1.625   4.175   2.575  0.0000  0.0000  0.0000
    11DUM    Ar 5505   1.925   4.025   2.425  0.0000  0.0000  0.0000
    11DUM    Ar 5506   2.075   4.175   2.425  0.0000  0.0000  0.0000
    11DUM    Ar 5507   2.075   4.025   2.575  0.0000  0.0000  0.0000
    11DUM    Ar 5508   1.925   4.175   2.575  0.0000  0.0000  0.0000
    11DUM    Ar 5509   2.225   4.025   2.425  0.0000  0.0000  0.0000
    11DUM    Ar 5510   2.375   4.175   2.425  0.0000  0.0000  0.0000
    11DUM    Ar 5511   2.375   4.025   2.575  0.0000  0.0000  0.0000
    11DUM    Ar 5512   2.225   4.175   2.575  0.0000  0.0000  0.0000
    11DUM    Ar 5513   2.525   4.025   2.425  0.0000  0.0000  0.0000
    11DUM    Ar 5514   2.675   4.175   2.425  0.0000  0.0000  0.0000
    11DUM    Ar 5515   2.675   4.025   2.575  0.0000  0.0000  0.0000
    11DUM    Ar 5516   2.525   4.175   2.575  0.0000  0.0000  0.0000
    11DUM    Ar 5517   2.825   4.025   2.425  0.0000  0.0000  0.0000
    11DUM    Ar 5518   2.975   4.175   2.425  0.0000  0.0000  0.0000
    11DUM    Ar 5519   2.975   4.025   2.575  0.0000  0.0000  0.0000
    11DUM    Ar 5520   2.825   4.175   2.575  0.0000  0.0000  0.0000
    11DUM    Ar 5521   3.125   4.025   2.425  0.0000  0.0000  0.0000
    11DUM    Ar 5522   3.275   4.175   2.425  0.0000  0.0000  0.0000
    11DUM    Ar 5523   3.275   4.025   2.575  0.0000  0.0000  0.0000
    11DUM    Ar 5524   3.125   4.175   2.575  0.0000  0.0000  0.0000
    11DUM    Ar 5525   3.425   4.025   2.425  0.0000  0.0000  0.0000
    11DUM    Ar 5526   3.575   4.175   2.425  0.0000  0.0000  0.0000
    11DUM    Ar 5527   3.575   4.025   2.575  0.0000  0.0000  0.0000
    11DUM    Ar 5528   3.425   4.175   2.575  0.0000  0.0000  0.0000
    11DUM    Ar 5529   3.725   4.025   2.425  0.0000  0.0000  0.0000
    11DUM    Ar 5530   3.875   4.175   2.425  0.0000  0.0000  0.0000
    11DUM    Ar 5531   3.875   4.025   2.575  0.0000  0.0000  0.0000
    11DUM    Ar 5532   3.725   4.175   2.575  0.0000  0.0000  0.0000
    11DUM    Ar 5533   4.025   4.025   2.425  0.0000  0.0000  0.0000
    11DUM    Ar 5534   4.175   4.175   2.425  0.0000  0.0000  0.0000
    11DUM    Ar 5535   4.175   4.025   2.575  0.0000  0.0000  0.0000
    11DUM    Ar 5536   4.025   4.175   2.575  0.0000  0.0000  0.0000
    11DUM    Ar 5537  -0.175  -0.175   2.725  0.0000  0.0000  0.0000
    11DUM    Ar 5538  -0.025  -0.025   2.725  0.0000  0.0000  0.0000
    11DUM    Ar 5539  -0.025  -0.175   2.875  0.0000  0.0000  0.0000
    11DUM    Ar 5540  -0.175  -0.025   2.875  0.0000  0.0000  0.0000
    11DUM    Ar 5541   0.125  -0.175   2.725  0.0000  0.0000  0.0000
    11DUM    Ar 5542   0.275  -0.025   2.725  0.0000  0.0000  0.0000
    11DUM    Ar 5543   0.275  -0.175   2.875  0.0000  0.0000  0.0000
    11DUM    Ar 5544   0.125  -0.025   2.875  0.0000  0.0000  0.0000
    11DUM    Ar 5545   0.425  -0.175   2.725  0.0000  0.0000  0.0000
    11DUM    Ar 5546   0.575  -0.025   2.725  0.0000  0.0000  0.0000
    11DUM    Ar 5547   0.575  -0.175   2.875  0.0000  0.0000  0.0000
    11DUM    Ar 5548   0.425  -0.025   2.875  0.0000  0.0000  0.0000
    11DUM    Ar 5549   0.725  -0.175   2.725  0.0000  0.0000  0.0000
    11DUM    Ar 5550   0.875  -0.025   2.725  0.0000  0.0000  0.0000
    11DUM    Ar 5551   0.875  -0.175   2.875  0.0000  0.0000  0.0000
    11DUM    Ar 5552   0.725  -0.025   2.875  0.0000  0.0000  0.0000
    11DUM    Ar 5553   1.025  -0.175   2.725  0.0000  0.0000  0.0000
    11DUM    Ar 5554   1.175  -0.025   2.725  0.0000  0.0000  0.0000
    11DUM    Ar 5555   1.175  -0.175   2.875  0.0000  0.0000  0.0000
    11DUM    Ar 5556   1.025  -0.025   2.875  0.0000  0.0000  0.0000
    11DUM    Ar 5557   1.325  -0.175   2.725  0.0000  0.0000  0.0000
    11DUM    Ar 5558   1.475  -0.025   2.725  0.0000  0.0000  0.0000
    11DUM    Ar 5559   1.475  -0.175   2.875  0.0000  0.0000  0.0000
    11DUM    Ar 5560   1.325  -0.025   2.875  0.0000  0.0000  0.0000
    11DUM    Ar 5561   1.625  -0.175   2.725  0.0000  0.0000  0.0000
    11DUM    Ar 5562   1.775  -0.025   2.725  0.0000  0.0000  0.0000
    11DUM    Ar 5563   1.775  -0.175   2.875  0.0000  0.0000  0.0000
    11DUM    Ar 5564   1.625  -0.025   2.875  0.0000  0.0000  0.0000
    11DUM    Ar 5565   1.925  -0.175   2.725  0.0000  0.0000  0.0000
    11DUM    Ar 5566   2.075  -0.025   2.725  0.0000  0.0000  0.0000
    11DUM    Ar 5567   2.075  -0.175   2.875  0.0000  0.0000  0.0000
    11DUM    Ar 5568   1.925  -0.025   2.875  0.0000  0.0000  0.0000
    11DUM    Ar 5569   2.225  -0.175   2.725  0.0000  0.0000  0.0000
    11DUM    Ar 5570   2.375  -0.025   2.725  0.0000  0.0000  0.0000
    11DUM    Ar 5571   2.375  -0.175   2.875  0.0000  0.0000  0.0000
    11DUM    Ar 5572   2.225  -0.025   2.875  0.0000  0.0000  0.0000
    11DUM    Ar 5573   2.525  -0.175   2.725  0.0000  0.0000  0.0000
    11DUM    Ar 5574   2.675  -0.025   2.725  0.0000  0.0000  0.0000
    11DUM    Ar 5575   2.675  -0.175   2.875  0.0000  0.0000  0.0000
    11DUM    Ar 5576   2.525  -0.025   2.875  0.0000  0.0000  0.0000
    11DUM    Ar 5577   2.825  -0.175   2.725  0.0000  0.0000  0.0000
    11DUM    Ar 5578   2.975  -0.025   2.725  0.0000  0.0000  0.0000
    11DUM    Ar 5579   2.975  -0.175   2.875  0.0000  0.0000  0.0000
    11DUM    Ar 5580   2.825  -0.025   2.875  0.0000  0.0000  0.0000
    11DUM    Ar 5581   3.125  -0.175   2.725  0.0000  0.0000  0.0000
    11DUM    Ar 5582   3.275  -0.025   2.725  0.0000  0.0000  0.0000
    11DUM    Ar 5583   3.275  -0.175   2.875  0.0000  0.0000  0.0000
    11DUM    Ar 5584   3.125  -0.025   2.875  0.0000  0.0000  0.0000
    11DUM    Ar 5585   3.425  -0.175   2.725  0.0000  0.0000  0.0000
    11DUM    Ar 5586   3.575  -0.025   2.725  0.0000  0.0000  0.0000
    11DUM    Ar 5587   3.575  -0.175   2.875  0.0000  0.0000  0.0000
    11DUM    Ar 5588   3.425  -0.025   2.875  0.0000  0.0000  0.0000
    11DUM    Ar 5589   3.725  -0.175   2.725  0.0000  0.0000  0.0000
    11DUM    Ar 5590   3.875  -0.025   2.725  0.0000  0.0000  0.0000
    11DUM    Ar 5591   3.875  -0.175   2.875  0.0000  0.0000  0.0000
    11DUM    Ar 5592   3.725  -0.025   2.875  0.0000  0.0000  0.0000
    11DUM    Ar 5593   4.025  -0.175   2.725  0.0000  0.0000  0.0000
    11DUM    Ar 5594   4.175  -0.025   2.725  0.0000  0.0000  0.0000
    11DUM    Ar 5595   4.175  -0.175   2.875  0.0000  0.0000  0.0000
    11DUM    Ar 5596   4.025  -0.025   2.875  0.0000  0.0000  0.0000
    11DUM    Ar 5597  -0.175   0.125   2.725  0.0000  0.0000  0.0000
    11DUM    Ar 5598  -0.025   0.275   2.725  0.0000  0.0000  0.0000
    11DUM    Ar 5599  -0.025   0.125   2.875  0.0000  0.0000  0.0000
    11DUM    Ar 5600  -0.175   0.275   2.875  0.0000  0.0000  0.0000
    11DUM    Ar 5601   0.125   0.125   2.725  0.0000  0.0000  0.0000
    11DUM    Ar 5602   0.275   0.275   2.725  0.0000  0.0000  0.0000
    11DUM    Ar 5603   0.275   0.125   2.875  0.0000  0.0000  0.0000
    11DUM    Ar 5604   0.125   0.275   2.875  0.0000  0.0000  0.0000
    11DUM    Ar 5605   0.425   0.125   2.725  0.0000  0.0000  0.0000
    11DUM    Ar 5606   0.575   0.275   2.725  0.0000  0.0000  0.0000
    11DUM    Ar 5607   0.575   0.125   2.875  0.0000  0.0000  0.0000
    11DUM    Ar 5608   0.425   0.275   2.875  0.0000  0.0000  0.0000
    11DUM    Ar 5609   0.725   0.125   2.725  0.0000  0.0000  0.0000
    11DUM    Ar 5610   0.875   0.275   2.725  0.0000  0.0000  0.0000
    11DUM    Ar 5611   0.875   0.125   2.875  0.0000  0.0000  0.0000
    11DUM    Ar 5612   0.725   0.275   2.875  0.0000  0.0000  0.0000
    11DUM    Ar 5613   1.025   0.125   2.725  0.0000  0.0000  0.0000
    11DUM    Ar 5614   1.175   0.275   2.725  0.0000  0.0000  0.0000
    11DUM    Ar 5615   1.175   0.125   2.875  0.0000  0.0000  0.0000
    11DUM    Ar 5616   1.025   0.275   2.875  0.0000  0.0000  0.0000
    11DUM    Ar 5617   1.325   0.125   2.725  0.0000  0.0000  0.0000
    11DUM    Ar 5618   1.475   0.275   2.725  0.0000  0.0000  0.0000
    11DUM    Ar 5619   1.475   0.125   2.875  0.0000  0.0000  0.0000
    11DUM    Ar 5620   1.325   0.275   2.875  0.0000  0.0000  0.0000
    11DUM    Ar 5621   1.625   0.125   2.725  0.0000  0.0000  0.0000
    11DUM    Ar 5622   1.775   0.275   2.725  0.0000  0.0000  0.0000
    11DUM    Ar 5623   1.775   0.125   2.875  0.0000  0.0000  0.0000
    11DUM    Ar 5624   1.625   0.275   2.875  0.0000  0.0000  0.0000
    11DUM    Ar 5625   1.925   0.125   2.725  0.0000  0.0000  0.0000
    11DUM    Ar 5626   2.075   0.275   2.725  0.0000  0.0000  0.0000
    11DUM    Ar 5627   2.075   0.125   2.875  0.0000  0.0000  0.0000
    11DUM    Ar 5628   1.925   0.275   2.875  0.0000  0.0000  0.0000
    11DUM    Ar 5629   2.225   0.125   2.725  0.0000  0.0000  0.0000
    11DUM    Ar 5630   2.375   0.275   2.725  0.0000  0.0000  0.0000
    11DUM    Ar 5631   2.375   0.125   2.875  0.0000  0.0000  0.0000
    11DUM    Ar 5632   2.225   0.275   2.875  0.0000  0.0000  0.0000
    11DUM    Ar 5633   2.525   0.125   2.725  0.0000  0.0000  0.0000
    11DUM    Ar 5634   2.675   0.275   2.725  0.0000  0.0000  0.0000
    11DUM    Ar 5635   2.675   0.125   2.875  0.0000  0.0000  0.0000
    11DUM    Ar 5636   2.525   0.275   2.875  0.0000  0.0000  0.0000
    11DUM    Ar 5637   2.825   0.125   2.725  0.0000  0.0000  0.0000
    11DUM    Ar 5638   2.975   0.275   2.725  0.0000  0.0000  0.0000
    11DUM    Ar 5639   2.975   0.125   2.875  0.0000  0.0000  0.0000
    11DUM    Ar 5640   2.825   0.275   2.875  0.0000  0.0000  0.0000
    11DUM    Ar 5641   3.125   0.125   2.725  0.0000  0.0000  0.0000
    11DUM    Ar 5642   3.275   0.275   2.725  0.0000  0.0000  0.0000
    11DUM    Ar 5643   3.275   0.125   2.875  0.0000  0.0000  0.0000
    11DUM    Ar 5644   3.125   0.275   2.875  0.0000  0.0000  0.0000
    11DUM    Ar 5645   3.425   0.125   2.725  0.0000  0.0000  0.0000
    11DUM    Ar 5646   3.575   0.275   2.725  0.0000  0.0000  0.0000
    11DUM    Ar 5647   3.575   0.125   2.875  0.0000  0.0000  0.0000
    11DUM    Ar 5648   3.425   0.275   2.875  0.0000  0.0000  0.0000
    11DUM    Ar 5649   3.725   0.125   2.725  0.0000  0.0000  0.0000
    11DUM    Ar 5650   3.875   0.275   2.725  0.0000  0.0000  0.0000
    11DUM    Ar 5651   3.875   0.125   2.875  0.0000  0.0000  0.0000
    11DUM    Ar 5652   3.725   0.275   2.875  0.0000  0.0000  0.0000
    11DUM    Ar 5653   4.025   0.125   2.725  0.0000  0.0000  0.0000
    11DUM    Ar 5654   4.175   0.275   2.725  0.0000  0.0000  0.0000
    11DUM    Ar 5655   4.175   0.125   2.875  0.0000  0.0000  0.0000
    11DUM    Ar 5656   4.025   0.275   2.875  0.0000  0.0000  0.0000
    11DUM    Ar 5657  -0.175   0.425   2.725  0.0000  0.0000  0.0000
    11DUM    Ar 5658  -0.025   0.575   2.725  0.0000  0.0000  0.0000
    11DUM    Ar 5659  -0.025   0.425   2.875  0.0000  0.0000  0.0000
    11DUM    Ar 5660  -0.175   0.575   2.875  0.0000  0.0000  0.0000
    11DUM    Ar 5661   0.125   0.425   2.725  0.0000  0.0000  0.0000
    11DUM    Ar 5662   0.275   0.575   2.725  0.0000  0.0000  0.0000
    11DUM    Ar 5663   0.275   0.425   2.875  0.0000  0.0000  0.0000
    11DUM    Ar 5664   0.125   0.575   2.875  0.0000  0.0000  0.0000
    11DUM    Ar 5665   0.425   0.425   2.725  0.0000  0.0000  0.0000
    11DUM    Ar 5666   0.575   0.425   2.875  0.0000  0.0000  0.0000
    11DUM    Ar 5667   0.425   0.575   2.875  0.0000  0.0000  0.0000
    11DUM    Ar 5668   0.725   0.425   2.725  0.0000  0.0000  0.0000
    11DUM    Ar 5669   1.325   0.425   2.725  0.0000  0.0000  0.0000
    11DUM    Ar 5670   1.475   0.575   2.725  0.0000  0.0000  0.0000
    11DUM    Ar 5671   1.475   0.425   2.875  0.0000  0.0000  0.0000
    11DUM    Ar 5672   1.625   0.425   2.725  0.0000  0.0000  0.0000
    11DUM    Ar 5673   1.775   0.575   2.725  0.0000  0.0000  0.0000
    11DUM    Ar 5674   1.775   0.425   2.875  0.0000  0.0000  0.0000
    11DUM    Ar 5675   1.625   0.575   2.875  0.0000  0.0000  0.0000
    11DUM    Ar 5676   1.925   0.425   2.725  0.0000  0.0000  0.0000
    11DUM    Ar 5677   2.075   0.575   2.725  0.0000  0.0000  0.0000
    11DUM    Ar 5678   2.075   0.425   2.875  0.0000  0.0000  0.0000
    11DUM    Ar 5679   1.925   0.575   2.875  0.0000  0.0000  0.0000
    11DUM    Ar 5680   2.225   0.425   2.725  0.0000  0.0000  0.0000
    11DUM    Ar 5681   2.375   0.575   2.725  0.0000  0.0000  0.0000
    11DUM    Ar 5682   2.375   0.425   2.875  0.0000  0.0000  0.0000
    11DUM    Ar 5683   2.225   0.575   2.875  0.0000  0.0000  0.0000
    11DUM    Ar 5684   2.525   0.425   2.725  0.0000  0.0000  0.0000
    11DUM    Ar 5685   2.675   0.425   2.875  0.0000  0.0000  0.0000
    11DUM    Ar 5686   2.525   0.575   2.875  0.0000  0.0000  0.0000
    11DUM    Ar 5687   3.275   0.425   2.875  0.0000  0.0000  0.0000
    11DUM    Ar 5688   3.425   0.425   2.725  0.0000  0.0000  0.0000
    11DUM    Ar 5689   3.575   0.575   2.725  0.0000  0.0000  0.0000
    11DUM    Ar 5690   3.575   0.425   2.875  0.0000  0.0000  0.0000
    11DUM    Ar 5691   3.725   0.425   2.725  0.0000  0.0000  0.0000
    11DUM    Ar 5692   3.875   0.575   2.725  0.0000  0.0000  0.0000
    11DUM    Ar 5693   3.875   0.425   2.875  0.0000  0.0000  0.0000
    11DUM    Ar 5694   3.725   0.575   2.875  0.0000  0.0000  0.0000
    11DUM    Ar 5695   4.025   0.425   2.725  0.0000  0.0000  0.0000
    11DUM    Ar 5696   4.175   0.575   2.725  0.0000  0.0000  0.0000
    11DUM    Ar 5697   4.175   0.425   2.875  0.0000  0.0000  0.0000
    11DUM    Ar 5698   4.025   0.575   2.875  0.0000  0.0000  0.0000
    11DUM    Ar 5699  -0.175   0.725   2.725  0.0000  0.0000  0.0000
    11DUM    Ar 5700  -0.025   0.875   2.725  0.0000  0.0000  0.0000
    11DUM    Ar 5701  -0.025   0.725   2.875  0.0000  0.0000  0.0000
    11DUM    Ar 5702  -0.175   0.875   2.875  0.0000  0.0000  0.0000
    11DUM    Ar 5703   0.125   0.725   2.725  0.0000  0.0000  0.0000
    11DUM    Ar 5704   0.275   0.875   2.725  0.0000  0.0000  0.0000
    11DUM    Ar 5705   0.275   0.725   2.875  0.0000  0.0000  0.0000
    11DUM    Ar 5706   0.125   0.875   2.875  0.0000  0.0000  0.0000
    11DUM    Ar 5707   0.425   0.725   2.725  0.0000  0.0000  0.0000
    11DUM    Ar 5708   1.625   0.725   2.725  0.0000  0.0000  0.0000
    11DUM    Ar 5709   1.775   0.875   2.725  0.0000  0.0000  0.0000
    11DUM    Ar 5710   1.775   0.725   2.875  0.0000  0.0000  0.0000
    11DUM    Ar 5711   1.625   0.875   2.875  0.0000  0.0000  0.0000
    11DUM    Ar 5712   1.925   0.725   2.725  0.0000  0.0000  0.0000
    11DUM    Ar 5713   2.075   0.875   2.725  0.0000  0.0000  0.0000
    11DUM    Ar 5714   2.075   0.725   2.875  0.0000  0.0000  0.0000
    11DUM    Ar 5715   1.925   0.875   2.875  0.0000  0.0000  0.0000
    11DUM    Ar 5716   2.225   0.725   2.725  0.0000  0.0000  0.0000
    11DUM    Ar 5717   2.375   0.875   2.725  0.0000  0.0000  0.0000
    11DUM    Ar 5718   2.375   0.725   2.875  0.0000  0.0000  0.0000
    11DUM    Ar 5719   2.225   0.875   2.875  0.0000  0.0000  0.0000
    11DUM    Ar 5720   3.575   0.725   2.875  0.0000  0.0000  0.0000
    11DUM    Ar 5721   3.725   0.725   2.725  0.0000  0.0000  0.0000
    11DUM    Ar 5722   3.875   0.875   2.725  0.0000  0.0000  0.0000
    11DUM    Ar 5723   3.875   0.725   2.875  0.0000  0.0000  0.0000
    11DUM    Ar 5724   3.725   0.875   2.875  0.0000  0.0000  0.0000
    11DUM    Ar 5725   4.025   0.725   2.725  0.0000  0.0000  0.0000
    11DUM    Ar 5726   4.175   0.875   2.725  0.0000  0.0000  0.0000
    11DUM    Ar 5727   4.175   0.725   2.875  0.0000  0.0000  0.0000
    11DUM    Ar 5728   4.025   0.875   2.875  0.0000  0.0000  0.0000
    11DUM    Ar 5729  -0.175   1.025   2.725  0.0000  0.0000  0.0000
    11DUM    Ar 5730  -0.025   1.175   2.725  0.0000  0.0000  0.0000
    11DUM    Ar 5731  -0.025   1.025   2.875  0.0000  0.0000  0.0000
    11DUM    Ar 5732  -0.175   1.175   2.875  0.0000  0.0000  0.0000
    11DUM    Ar 5733   0.125   1.025   2.725  0.0000  0.0000  0.0000
    11DUM    Ar 5734   0.275   1.175   2.725  0.0000  0.0000  0.0000
    11DUM    Ar 5735   0.275   1.025   2.875  0.0000  0.0000  0.0000
    11DUM    Ar 5736   0.125   1.175   2.875  0.0000  0.0000  0.0000
    11DUM    Ar 5737   1.625   1.025   2.725  0.0000  0.0000  0.0000
    11DUM    Ar 5738   1.775   1.175   2.725  0.0000  0.0000  0.0000
    11DUM    Ar 5739   1.775   1.025   2.875  0.0000  0.0000  0.0000
    11DUM    Ar 5740   1.625   1.175   2.875  0.0000  0.0000  0.0000
    11DUM    Ar 5741   1.925   1.025   2.725  0.0000  0.0000  0.0000
    11DUM    Ar 5742   2.075   1.175   2.725  0.0000  0.0000  0.0000
    11DUM    Ar 5743   2.075   1.025   2.875  0.0000  0.0000  0.0000
    11DUM    Ar 5744   1.925   1.175   2.875  0.0000  0.0000  0.0000
    11DUM    Ar 5745   2.225   1.025   2.725  0.0000  0.0000  0.0000
    11DUM    Ar 5746   2.375   1.175   2.725  0.0000  0.0000  0.0000
    11DUM    Ar 5747   2.375   1.025   2.875  0.0000  0.0000  0.0000
    11DUM    Ar 5748   2.225   1.175   2.875  0.0000  0.0000  0.0000
    11DUM    Ar 5749   3.725   1.025   2.725  0.0000  0.0000  0.0000
    11DUM    Ar 5750   3.875   1.175   2.725  0.0000  0.0000  0.0000
    11DUM    Ar 5751   3.875   1.025   2.875  0.0000  0.0000  0.0000
    11DUM    Ar 5752   3.725   1.175   2.875  0.0000  0.0000  0.0000
    11DUM    Ar 5753   4.025   1.025   2.725  0.0000  0.0000  0.0000
    11DUM    Ar 5754   4.175   1.175   2.725  0.0000  0.0000  0.0000
    11DUM    Ar 5755   4.175   1.025   2.875  0.0000  0.0000  0.0000
    11DUM    Ar 5756   4.025   1.175   2.875  0.0000  0.0000  0.0000
    11DUM    Ar 5757  -0.175   1.325   2.725  0.0000  0.0000  0.0000
    11DUM    Ar 5758  -0.025   1.475   2.725  0.0000  0.0000  0.0000
    11DUM    Ar 5759  -0.025   1.325   2.875  0.0000  0.0000  0.0000
    11DUM    Ar 5760  -0.175   1.475   2.875  0.0000  0.0000  0.0000
    11DUM    Ar 5761   0.125   1.325   2.725  0.0000  0.0000  0.0000
    11DUM    Ar 5762   0.275   1.475   2.725  0.0000  0.0000  0.0000
    11DUM    Ar 5763   0.275   1.325   2.875  0.0000  0.0000  0.0000
    11DUM    Ar 5764   0.125   1.475   2.875  0.0000  0.0000  0.0000
    11DUM    Ar 5765   0.425   1.325   2.725  0.0000  0.0000  0.0000
    11DUM    Ar 5766   0.575   1.475   2.725  0.0000  0.0000  0.0000
    11DUM    Ar 5767   0.425   1.475   2.875  0.0000  0.0000  0.0000
    11DUM    Ar 5768   1.475   1.475   2.725  0.0000  0.0000  0.0000
    11DUM    Ar 5769   1.625   1.325   2.725  0.0000  0.0000  0.0000
    11DUM    Ar 5770   1.775   1.475   2.725  0.0000  0.0000  0.0000
    11DUM    Ar 5771   1.775   1.325   2.875  0.0000  0.0000  0.0000
    11DUM    Ar 5772   1.625   1.475   2.875  0.0000  0.0000  0.0000
    11DUM    Ar 5773   1.925   1.325   2.725  0.0000  0.0000  0.0000
    11DUM    Ar 5774   2.075   1.475   2.725  0.0000  0.0000  0.0000
    11DUM    Ar 5775   2.075   1.325   2.875  0.0000  0.0000  0.0000
    11DUM    Ar 5776   1.925   1.475   2.875  0.0000  0.0000  0.0000
    11DUM    Ar 5777   2.225   1.325   2.725  0.0000  0.0000  0.0000
    11DUM    Ar 5778   2.375   1.475   2.725  0.0000  0.0000  0.0000
    11DUM    Ar 5779   2.375   1.325   2.875  0.0000  0.0000  0.0000
    11DUM    Ar 5780   2.225   1.475   2.875  0.0000  0.0000  0.0000
    11DUM    Ar 5781   2.525   1.475   2.875  0.0000  0.0000  0.0000
    11DUM    Ar 5782   3.575   1.475   2.725  0.0000  0.0000  0.0000
    11DUM    Ar 5783   3.575   1.325   2.875  0.0000  0.0000  0.0000
    11DUM    Ar 5784   3.425   1.475   2.875  0.0000  0.0000  0.0000
    11DUM    Ar 5785   3.725   1.325   2.725  0.0000  0.0000  0.0000
    11DUM    Ar 5786   3.875   1.475   2.725  0.0000  0.0000  0.0000
    11DUM    Ar 5787   3.875   1.325   2.875  0.0000  0.0000  0.0000
    11DUM    Ar 5788   3.725   1.475   2.875  0.0000  0.0000  0.0000
    11DUM    Ar 5789   4.025   1.325   2.725  0.0000  0.0000  0.0000
    11DUM    Ar 5790   4.175   1.475   2.725  0.0000  0.0000  0.0000
    11DUM    Ar 5791   4.175   1.325   2.875  0.0000  0.0000  0.0000
    11DUM    Ar 5792   4.025   1.475   2.875  0.0000  0.0000  0.0000
    11DUM    Ar 5793  -0.175   1.625   2.725  0.0000  0.0000  0.0000
    11DUM    Ar 5794  -0.025   1.775   2.725  0.0000  0.0000  0.0000
    11DUM    Ar 5795  -0.025   1.625   2.875  0.0000  0.0000  0.0000
    11DUM    Ar 5796  -0.175   1.775   2.875  0.0000  0.0000  0.0000
    11DUM    Ar 5797   0.125   1.625   2.725  0.0000  0.0000  0.0000
    11DUM    Ar 5798   0.275   1.775   2.725  0.0000  0.0000  0.0000
    11DUM    Ar 5799   0.275   1.625   2.875  0.0000  0.0000  0.0000
    11DUM    Ar 5800   0.125   1.775   2.875  0.0000  0.0000  0.0000
    11DUM    Ar 5801   0.425   1.625   2.725  0.0000  0.0000  0.0000
    11DUM    Ar 5802   0.575   1.775   2.725  0.0000  0.0000  0.0000
    11DUM    Ar 5803   0.575   1.625   2.875  0.0000  0.0000  0.0000
    11DUM    Ar 5804   0.425   1.775   2.875  0.0000  0.0000  0.0000
    11DUM    Ar 5805   0.725   1.625   2.725  0.0000  0.0000  0.0000
    11DUM    Ar 5806   0.875   1.775   2.725  0.0000  0.0000  0.0000
    11DUM    Ar 5807   0.875   1.625   2.875  0.0000  0.0000  0.0000
    11DUM    Ar 5808   0.725   1.775   2.875  0.0000  0.0000  0.0000
    11DUM    Ar 5809   1.025   1.625   2.725  0.0000  0.0000  0.0000
    11DUM    Ar 5810   1.175   1.775   2.725  0.0000  0.0000  0.0000
    11DUM    Ar 5811   1.175   1.625   2.875  0.0000  0.0000  0.0000
    11DUM    Ar 5812   1.025   1.775   2.875  0.0000  0.0000  0.0000
    11DUM    Ar 5813   1.325   1.625   2.725  0.0000  0.0000  0.0000
    11DUM    Ar 5814   1.475   1.775   2.725  0.0000  0.0000  0.0000
    11DUM    Ar 5815   1.475   1.625   2.875  0.0000  0.0000  0.0000
    11DUM    Ar 5816   1.325   1.775   2.875  0.0000  0.0000  0.0000
    11DUM    Ar 5817   1.625   1.625   2.725  0.0000  0.0000  0.0000
    11DUM    Ar 5818   1.775   1.775   2.725  0.0000  0.0000  0.0000
    11DUM    Ar 5819   1.775   1.625   2.875  0.0000  0.0000  0.0000
    11DUM    Ar 5820   1.625   1.775   2.875  0.0000  0.0000  0.0000
    11DUM    Ar 5821   1.925   1.625   2.725  0.0000  0.0000  0.0000
    11DUM    Ar 5822   2.075   1.775   2.725  0.0000  0.0000  0.0000
    11DUM    Ar 5823   2.075   1.625   2.875  0.0000  0.0000  0.0000
    11DUM    Ar 5824   1.925   1.775   2.875  0.0000  0.0000  0.0000
    11DUM    Ar 5825   2.225   1.625   2.725  0.0000  0.0000  0.0000
    11DUM    Ar 5826   2.375   1.775   2.725  0.0000  0.0000  0.0000
    11DUM    Ar 5827   2.375   1.625   2.875  0.0000  0.0000  0.0000
    11DUM    Ar 5828   2.225   1.775   2.875  0.0000  0.0000  0.0000
    11DUM    Ar 5829   2.525   1.625   2.725  0.0000  0.0000  0.0000
    11DUM    Ar 5830   2.675   1.775   2.725  0.0000  0.0000  0.0000
    11DUM    Ar 5831   2.675   1.625   2.875  0.0000  0.0000  0.0000
    11DUM    Ar 5832   2.525   1.775   2.875  0.0000  0.0000  0.0000
    11DUM    Ar 5833   2.825   1.625   2.725  0.0000  0.0000  0.0000
    11DUM    Ar 5834   2.975   1.775   2.725  0.0000  0.0000  0.0000
    11DUM    Ar 5835   2.975   1.625   2.875  0.0000  0.0000  0.0000
    11DUM    Ar 5836   2.825   1.775   2.875  0.0000  0.0000  0.0000
    11DUM    Ar 5837   3.125   1.625   2.725  0.0000  0.0000  0.0000
    11DUM    Ar 5838   3.275   1.775   2.725  0.0000  0.0000  0.0000
    11DUM    Ar 5839   3.275   1.625   2.875  0.0000  0.0000  0.0000
    11DUM    Ar 5840   3.125   1.775   2.875  0.0000  0.0000  0.0000
    11DUM    Ar 5841   3.425   1.625   2.725  0.0000  0.0000  0.0000
    11DUM    Ar 5842   3.575   1.775   2.725  0.0000  0.0000  0.0000
    11DUM    Ar 5843   3.575   1.625   2.875  0.0000  0.0000  0.0000
    11DUM    Ar 5844   3.425   1.775   2.875  0.0000  0.0000  0.0000
    11DUM    Ar 5845   3.725   1.625   2.725  0.0000  0.0000  0.0000
    11DUM    Ar 5846   3.875   1.775   2.725  0.0000  0.0000  0.0000
    11DUM    Ar 5847   3.875   1.625   2.875  0.0000  0.0000  0.0000
    11DUM    Ar 5848   3.725   1.775   2.875  0.0000  0.0000  0.0000
    11DUM    Ar 5849   4.025   1.625   2.725  0.0000  0.0000  0.0000
    11DUM    Ar 5850   4.175   1.775   2.725  0.0000  0.0000  0.0000
    11DUM    Ar 5851   4.175   1.625   2.875  0.0000  0.0000  0.0000
    11DUM    Ar 5852   4.025   1.775   2.875  0.0000  0.0000  0.0000
    11DUM    Ar 5853  -0.175   1.925   2.725  0.0000  0.0000  0.0000
    11DUM    Ar 5854  -0.025   2.075   2.725  0.0000  0.0000  0.0000
    11DUM    Ar 5855  -0.025   1.925   2.875  0.0000  0.0000  0.0000
    11DUM    Ar 5856  -0.175   2.075   2.875  0.0000  0.0000  0.0000
    11DUM    Ar 5857   0.125   1.925   2.725  0.0000  0.0000  0.0000
    11DUM    Ar 5858   0.275   2.075   2.725  0.0000  0.0000  0.0000
    11DUM    Ar 5859   0.275   1.925   2.875  0.0000  0.0000  0.0000
    11DUM    Ar 5860   0.125   2.075   2.875  0.0000  0.0000  0.0000
    11DUM    Ar 5861   0.425   1.925   2.725  0.0000  0.0000  0.0000
    11DUM    Ar 5862   0.575   2.075   2.725  0.0000  0.0000  0.0000
    11DUM    Ar 5863   0.575   1.925   2.875  0.0000  0.0000  0.0000
    11DUM    Ar 5864   0.425   2.075   2.875  0.0000  0.0000  0.0000
    11DUM    Ar 5865   0.725   1.925   2.725  0.0000  0.0000  0.0000
    11DUM    Ar 5866   0.875   2.075   2.725  0.0000  0.0000  0.0000
    11DUM    Ar 5867   0.875   1.925   2.875  0.0000  0.0000  0.0000
    11DUM    Ar 5868   0.725   2.075   2.875  0.0000  0.0000  0.0000
    11DUM    Ar 5869   1.025   1.925   2.725  0.0000  0.0000  0.0000
    11DUM    Ar 5870   1.175   2.075   2.725  0.0000  0.0000  0.0000
    11DUM    Ar 5871   1.175   1.925   2.875  0.0000  0.0000  0.0000
    11DUM    Ar 5872   1.025   2.075   2.875  0.0000  0.0000  0.0000
    11DUM    Ar 5873   1.325   1.925   2.725  0.0000  0.0000  0.0000
    11DUM    Ar 5874   1.475   2.075   2.725  0.0000  0.0000  0.0000
    11DUM    Ar 5875   1.475   1.925   2.875  0.0000  0.0000  0.0000
    11DUM    Ar 5876   1.325   2.075   2.875  0.0000  0.0000  0.0000
    11DUM    Ar 5877   1.625   1.925   2.725  0.0000  0.0000  0.0000
    11DUM    Ar 5878   1.775   2.075   2.725  0.0000  0.0000  0.0000
    11DUM    Ar 5879   1.775   1.925   2.875  0.0000  0.0000  0.0000
    11DUM    Ar 5880   1.625   2.075   2.875  0.0000  0.0000  0.0000
    11DUM    Ar 5881   1.925   1.925   2.725  0.0000  0.0000  0.0000
    11DUM    Ar 5882   2.075   2.075   2.725  0.0000  0.0000  0.0000
    11DUM    Ar 5883   2.075   1.925   2.875  0.0000  0.0000  0.0000
    11DUM    Ar 5884   1.925   2.075   2.875  0.0000  0.0000  0.0000
    11DUM    Ar 5885   2.225   1.925   2.725  0.0000  0.0000  0.0000
    11DUM    Ar 5886   2.375   2.075   2.725  0.0000  0.0000  0.0000
    11DUM    Ar 5887   2.375   1.925   2.875  0.0000  0.0000  0.0000
    11DUM    Ar 5888   2.225   2.075   2.875  0.0000  0.0000  0.0000
    11DUM    Ar 5889   2.525   1.925   2.725  0.0000  0.0000  0.0000
    11DUM    Ar 5890   2.675   2.075   2.725  0.0000  0.0000  0.0000
    11DUM    Ar 5891   2.675   1.925   2.875  0.0000  0.0000  0.0000
    11DUM    Ar 5892   2.525   2.075   2.875  0.0000  0.0000  0.0000
    11DUM    Ar 5893   2.825   1.925   2.725  0.0000  0.0000  0.0000
    11DUM    Ar 5894   2.975   2.075   2.725  0.0000  0.0000  0.0000
    11DUM    Ar 5895   2.975   1.925   2.875  0.0000  0.0000  0.0000
    11DUM    Ar 5896   2.825   2.075   2.875  0.0000  0.0000  0.0000
    11DUM    Ar 5897   3.125   1.925   2.725  0.0000  0.0000  0.0000
    11DUM    Ar 5898   3.275   2.075   2.725  0.0000  0.0000  0.0000
    11DUM    Ar 5899   3.275   1.925   2.875  0.0000  0.0000  0.0000
    11DUM    Ar 5900   3.125   2.075   2.875  0.0000  0.0000  0.0000
    11DUM    Ar 5901   3.425   1.925   2.725  0.0000  0.0000  0.0000
    11DUM    Ar 5902   3.575   2.075   2.725  0.0000  0.0000  0.0000
    11DUM    Ar 5903   3.575   1.925   2.875  0.0000  0.0000  0.0000
    11DUM    Ar 5904   3.425   2.075   2.875  0.0000  0.0000  0.0000
    11DUM    Ar 5905   3.725   1.925   2.725  0.0000  0.0000  0.0000
    11DUM    Ar 5906   3.875   2.075   2.725  0.0000  0.0000  0.0000
    11DUM    Ar 5907   3.875   1.925   2.875  0.0000  0.0000  0.0000
    11DUM    Ar 5908   3.725   2.075   2.875  0.0000  0.0000  0.0000
    11DUM    Ar 5909   4.025   1.925   2.725  0.0000  0.0000  0.0000
    11DUM    Ar 5910   4.175   2.075   2.725  0.0000  0.0000  0.0000
    11DUM    Ar 5911   4.175   1.925   2.875  0.0000  0.0000  0.0000
    11DUM    Ar 5912   4.025   2.075   2.875  0.0000  0.0000  0.0000
    11DUM    Ar 5913  -0.175   2.225   2.725  0.0000  0.0000  0.0000
    11DUM    Ar 5914  -0.025   2.375   2.725  0.0000  0.0000  0.0000
    11DUM    Ar 5915  -0.025   2.225   2.875  0.0000  0.0000  0.0000
    11DUM    Ar 5916  -0.175   2.375   2.875  0.0000  0.0000  0.0000
    11DUM    Ar 5917   0.125   2.225   2.725  0.0000  0.0000  0.0000
    11DUM    Ar 5918   0.275   2.375   2.725  0.0000  0.0000  0.0000
    11DUM    Ar 5919   0.275   2.225   2.875  0.0000  0.0000  0.0000
    11DUM    Ar 5920   0.125   2.375   2.875  0.0000  0.0000  0.0000
    11DUM    Ar 5921   0.425   2.225   2.725  0.0000  0.0000  0.0000
    11DUM    Ar 5922   0.575   2.375   2.725  0.0000  0.0000  0.0000
    11DUM    Ar 5923   0.575   2.225   2.875  0.0000  0.0000  0.0000
    11DUM    Ar 5924   0.425   2.375   2.875  0.0000  0.0000  0.0000
    11DUM    Ar 5925   0.725   2.225   2.725  0.0000  0.0000  0.0000
    11DUM    Ar 5926   0.875   2.375   2.725  0.0000  0.0000  0.0000
    11DUM    Ar 5927   0.875   2.225   2.875  0.0000  0.0000  0.0000
    11DUM    Ar 5928   0.725   2.375   2.875  0.0000  0.0000  0.0000
    11DUM    Ar 5929   1.025   2.225   2.725  0.0000  0.0000  0.0000
    11DUM    Ar 5930   1.175   2.375   2.725  0.0000  0.0000  0.0000
    11DUM    Ar 5931   1.175   2.225   2.875  0.0000  0.0000  0.0000
    11DUM    Ar 5932   1.025   2.375   2.875  0.0000  0.0000  0.0000
    11DUM    Ar 5933   1.325   2.225   2.725  0.0000  0.0000  0.0000
    11DUM    Ar 5934   1.475   2.375   2.725  0.0000  0.0000  0.0000
    11DUM    Ar 5935   1.475   2.225   2.875  0.0000  0.0000  0.0000
    11DUM    Ar 5936   1.325   2.375   2.875  0.0000  0.0000  0.0000
    11DUM    Ar 5937   1.625   2.225   2.725  0.0000  0.0000  0.0000
    11DUM    Ar 5938   1.775   2.375   2.725  0.0000  0.0000  0.0000
    11DUM    Ar 5939   1.775   2.225   2.875  0.0000  0.0000  0.0000
    11DUM    Ar 5940   1.625   2.375   2.875  0.0000  0.0000  0.0000
    11DUM    Ar 5941   1.925   2.225   2.725  0.0000  0.0000  0.0000
    11DUM    Ar 5942   2.075   2.375   2.725  0.0000  0.0000  0.0000
    11DUM    Ar 5943   2.075   2.225   2.875  0.0000  0.0000  0.0000
    11DUM    Ar 5944   1.925   2.375   2.875  0.0000  0.0000  0.0000
    11DUM    Ar 5945   2.225   2.225   2.725  0.0000  0.0000  0.0000
    11DUM    Ar 5946   2.375   2.375   2.725  0.0000  0.0000  0.0000
    11DUM    Ar 5947   2.375   2.225   2.875  0.0000  0.0000  0.0000
    11DUM    Ar 5948   2.225   2.375   2.875  0.0000  0.0000  0.0000
    11DUM    Ar 5949   2.525   2.225   2.725  0.0000  0.0000  0.0000
    11DUM    Ar 5950   2.675   2.375   2.725  0.0000  0.0000  0.0000
    11DUM    Ar 5951   2.675   2.225   2.875  0.0000  0.0000  0.0000
    11DUM    Ar 5952   2.525   2.375   2.875  0.0000  0.0000  0.0000
    11DUM    Ar 5953   2.825   2.225   2.725  0.0000  0.0000  0.0000
    11DUM    Ar 5954   2.975   2.375   2.725  0.0000  0.0000  0.0000
    11DUM    Ar 5955   2.975   2.225   2.875  0.0000  0.0000  0.0000
    11DUM    Ar 5956   2.825   2.375   2.875  0.0000  0.0000  0.0000
    11DUM    Ar 5957   3.125   2.225   2.725  0.0000  0.0000  0.0000
    11DUM    Ar 5958   3.275   2.375   2.725  0.0000  0.0000  0.0000
    11DUM    Ar 5959   3.275   2.225   2.875  0.0000  0.0000  0.0000
    11DUM    Ar 5960   3.125   2.375   2.875  0.0000  0.0000  0.0000
    11DUM    Ar 5961   3.425   2.225   2.725  0.0000  0.0000  0.0000
    11DUM    Ar 5962   3.575   2.375   2.725  0.0000  0.0000  0.0000
    11DUM    Ar 5963   3.575   2.225   2.875  0.0000  0.0000  0.0000
    11DUM    Ar 5964   3.425   2.375   2.875  0.0000  0.0000  0.0000
    11DUM    Ar 5965   3.725   2.225   2.725  0.0000  0.0000  0.0000
    11DUM    Ar 5966   3.875   2.375   2.725  0.0000  0.0000  0.0000
    11DUM    Ar 5967   3.875   2.225   2.875  0.0000  0.0000  0.0000
    11DUM    Ar 5968   3.725   2.375   2.875  0.0000  0.0000  0.0000
    11DUM    Ar 5969   4.025   2.225   2.725  0.0000  0.0000  0.0000
    11DUM    Ar 5970   4.175   2.375   2.725  0.0000  0.0000  0.0000
    11DUM    Ar 5971   4.175   2.225   2.875  0.0000  0.0000  0.0000
    11DUM    Ar 5972   4.025   2.375   2.875  0.0000  0.0000  0.0000
    11DUM    Ar 5973  -0.175   2.525   2.725  0.0000  0.0000  0.0000
    11DUM    Ar 5974  -0.025   2.675   2.725  0.0000  0.0000  0.0000
    11DUM    Ar 5975  -0.025   2.525   2.875  0.0000  0.0000  0.0000
    11DUM    Ar 5976  -0.175   2.675   2.875  0.0000  0.0000  0.0000
    11DUM    Ar 5977   0.125   2.525   2.725  0.0000  0.0000  0.0000
    11DUM    Ar 5978   0.275   2.675   2.725  0.0000  0.0000  0.0000
    11DUM    Ar 5979   0.275   2.525   2.875  0.0000  0.0000  0.0000
    11DUM    Ar 5980   0.125   2.675   2.875  0.0000  0.0000  0.0000
    11DUM    Ar 5981   0.425   2.525   2.725  0.0000  0.0000  0.0000
    11DUM    Ar 5982   0.575   2.525   2.875  0.0000  0.0000  0.0000
    11DUM    Ar 5983   0.425   2.675   2.875  0.0000  0.0000  0.0000
    11DUM    Ar 5984   1.475   2.525   2.875  0.0000  0.0000  0.0000
    11DUM    Ar 5985   1.625   2.525   2.725  0.0000  0.0000  0.0000
    11DUM    Ar 5986   1.775   2.675   2.725  0.0000  0.0000  0.0000
    11DUM    Ar 5987   1.775   2.525   2.875  0.0000  0.0000  0.0000
    11DUM    Ar 5988   1.625   2.675   2.875  0.0000  0.0000  0.0000
    11DUM    Ar 5989   1.925   2.525   2.725  0.0000  0.0000  0.0000
    11DUM    Ar 5990   2.075   2.675   2.725  0.0000  0.0000  0.0000
    11DUM    Ar 5991   2.075   2.525   2.875  0.0000  0.0000  0.0000
    11DUM    Ar 5992   1.925   2.675   2.875  0.0000  0.0000  0.0000
    11DUM    Ar 5993   2.225   2.525   2.725  0.0000  0.0000  0.0000
    11DUM    Ar 5994   2.375   2.675   2.725  0.0000  0.0000  0.0000
    11DUM    Ar 5995   2.375   2.525   2.875  0.0000  0.0000  0.0000
    11DUM    Ar 5996   2.225   2.675   2.875  0.0000  0.0000  0.0000
    11DUM    Ar 5997   2.525   2.525   2.725  0.0000  0.0000  0.0000
    11DUM    Ar 5998   3.425   2.525   2.725  0.0000  0.0000  0.0000
    11DUM    Ar 5999   3.575   2.675   2.725  0.0000  0.0000  0.0000
    11DUM    Ar 6000   3.575   2.525   2.875  0.0000  0.0000  0.0000
    11DUM    Ar 6001   3.725   2.525   2.725  0.0000  0.0000  0.0000
    11DUM    Ar 6002   3.875   2.675   2.725  0.0000  0.0000  0.0000
    11DUM    Ar 6003   3.875   2.525   2.875  0.0000  0.0000  0.0000
    11DUM    Ar 6004   3.725   2.675   2.875  0.0000  0.0000  0.0000
    11DUM    Ar 6005   4.025   2.525   2.725  0.0000  0.0000  0.0000
    11DUM    Ar 6006   4.175   2.675   2.725  0.0000  0.0000  0.0000
    11DUM    Ar 6007   4.175   2.525   2.875  0.0000  0.0000  0.0000
    11DUM    Ar 6008   4.025   2.675   2.875  0.0000  0.0000  0.0000
    11DUM    Ar 6009  -0.175   2.825   2.725  0.0000  0.0000  0.0000
    11DUM    Ar 6010  -0.025   2.975   2.725  0.0000  0.0000  0.0000
    11DUM    Ar 6011  -0.025   2.825   2.875  0.0000  0.0000  0.0000
    11DUM    Ar 6012  -0.175   2.975   2.875  0.0000  0.0000  0.0000
    11DUM    Ar 6013   0.125   2.825   2.725  0.0000  0.0000  0.0000
    11DUM    Ar 6014   0.275   2.975   2.725  0.0000  0.0000  0.0000
    11DUM    Ar 6015   0.275   2.825   2.875  0.0000  0.0000  0.0000
    11DUM    Ar 6016   0.125   2.975   2.875  0.0000  0.0000  0.0000
    11DUM    Ar 6017   1.625   2.825   2.725  0.0000  0.0000  0.0000
    11DUM    Ar 6018   1.775   2.975   2.725  0.0000  0.0000  0.0000
    11DUM    Ar 6019   1.775   2.825   2.875  0.0000  0.0000  0.0000
    11DUM    Ar 6020   1.625   2.975   2.875  0.0000  0.0000  0.0000
    11DUM    Ar 6021   1.925   2.825   2.725  0.0000  0.0000  0.0000
    11DUM    Ar 6022   2.075   2.975   2.725  0.0000  0.0000  0.0000
    11DUM    Ar 6023   2.075   2.825   2.875  0.0000  0.0000  0.0000
    11DUM    Ar 6024   1.925   2.975   2.875  0.0000  0.0000  0.0000
    11DUM    Ar 6025   2.225   2.825   2.725  0.0000  0.0000  0.0000
    11DUM    Ar 6026   2.375   2.975   2.725  0.0000  0.0000  0.0000
    11DUM    Ar 6027   2.375   2.825   2.875  0.0000  0.0000  0.0000
    11DUM    Ar 6028   2.225   2.975   2.875  0.0000  0.0000  0.0000
    11DUM    Ar 6029   3.725   2.825   2.725  0.0000  0.0000  0.0000
    11DUM    Ar 6030   3.875   2.975   2.725  0.0000  0.0000  0.0000
    11DUM    Ar 6031   3.875   2.825   2.875  0.0000  0.0000  0.0000
    11DUM    Ar 6032   3.725   2.975   2.875  0.0000  0.0000  0.0000
    11DUM    Ar 6033   4.025   2.825   2.725  0.0000  0.0000  0.0000
    11DUM    Ar 6034   4.175   2.975   2.725  0.0000  0.0000  0.0000
    11DUM    Ar 6035   4.175   2.825   2.875  0.0000  0.0000  0.0000
    11DUM    Ar 6036   4.025   2.975   2.875  0.0000  0.0000  0.0000
    11DUM    Ar 6037  -0.175   3.125   2.725  0.0000  0.0000  0.0000
    11DUM    Ar 6038  -0.025   3.275   2.725  0.0000  0.0000  0.0000
    11DUM    Ar 6039  -0.025   3.125   2.875  0.0000  0.0000  0.0000
    11DUM    Ar 6040  -0.175   3.275   2.875  0.0000  0.0000  0.0000
    11DUM    Ar 6041   0.125   3.125   2.725  0.0000  0.0000  0.0000
    11DUM    Ar 6042   0.275   3.275   2.725  0.0000  0.0000  0.0000
    11DUM    Ar 6043   0.275   3.125   2.875  0.0000  0.0000  0.0000
    11DUM    Ar 6044   0.125   3.275   2.875  0.0000  0.0000  0.0000
    11DUM    Ar 6045   0.425   3.275   2.875  0.0000  0.0000  0.0000
    11DUM    Ar 6046   1.625   3.125   2.725  0.0000  0.0000  0.0000
    11DUM    Ar 6047   1.775   3.275   2.725  0.0000  0.0000  0.0000
    11DUM    Ar 6048   1.775   3.125   2.875  0.0000  0.0000  0.0000
    11DUM    Ar 6049   1.625   3.275   2.875  0.0000  0.0000  0.0000
    11DUM    Ar 6050   1.925   3.125   2.725  0.0000  0.0000  0.0000
    11DUM    Ar 6051   2.075   3.275   2.725  0.0000  0.0000  0.0000
    11DUM    Ar 6052   2.075   3.125   2.875  0.0000  0.0000  0.0000
    11DUM    Ar 6053   1.925   3.275   2.875  0.0000  0.0000  0.0000
    11DUM    Ar 6054   2.225   3.125   2.725  0.0000  0.0000  0.0000
    11DUM    Ar 6055   2.375   3.275   2.725  0.0000  0.0000  0.0000
    11DUM    Ar 6056   2.375   3.125   2.875  0.0000  0.0000  0.0000
    11DUM    Ar 6057   2.225   3.275   2.875  0.0000  0.0000  0.0000
    11DUM    Ar 6058   3.575   3.275   2.725  0.0000  0.0000  0.0000
    11DUM    Ar 6059   3.725   3.125   2.725  0.0000  0.0000  0.0000
    11DUM    Ar 6060   3.875   3.275   2.725  0.0000  0.0000  0.0000
    11DUM    Ar 6061   3.875   3.125   2.875  0.0000  0.0000  0.0000
    11DUM    Ar 6062   3.725   3.275   2.875  0.0000  0.0000  0.0000
    11DUM    Ar 6063   4.025   3.125   2.725  0.0000  0.0000  0.0000
    11DUM    Ar 6064   4.175   3.275   2.725  0.0000  0.0000  0.0000
    11DUM    Ar 6065   4.175   3.125   2.875  0.0000  0.0000  0.0000
    11DUM    Ar 6066   4.025   3.275   2.875  0.0000  0.0000  0.0000
    11DUM    Ar 6067  -0.175   3.425   2.725  0.0000  0.0000  0.0000
    11DUM    Ar 6068  -0.025   3.575   2.725  0.0000  0.0000  0.0000
    11DUM    Ar 6069  -0.025   3.425   2.875  0.0000  0.0000  0.0000
    11DUM    Ar 6070  -0.175   3.575   2.875  0.0000  0.0000  0.0000
    11DUM    Ar 6071   0.125   3.425   2.725  0.0000  0.0000  0.0000
    11DUM    Ar 6072   0.275   3.575   2.725  0.0000  0.0000  0.0000
    11DUM    Ar 6073   0.275   3.425   2.875  0.0000  0.0000  0.0000
    11DUM    Ar 6074   0.125   3.575   2.875  0.0000  0.0000  0.0000
    11DUM    Ar 6075   0.425   3.425   2.725  0.0000  0.0000  0.0000
    11DUM    Ar 6076   0.575   3.575   2.725  0.0000  0.0000  0.0000
    11DUM    Ar 6077   0.425   3.575   2.875  0.0000  0.0000  0.0000
    11DUM    Ar 6078   0.725   3.575   2.875  0.0000  0.0000  0.0000
    11DUM    Ar 6079   1.475   3.575   2.725  0.0000  0.0000  0.0000
    11DUM    Ar 6080   1.475   3.425   2.875  0.0000  0.0000  0.0000
    11DUM    Ar 6081   1.325   3.575   2.875  0.0000  0.0000  0.0000
    11DUM    Ar 6082   1.625   3.425   2.725  0.0000  0.0000  0.0000
    11DUM    Ar 6083   1.775   3.575   2.725  0.0000  0.0000  0.0000
    11DUM    Ar 6084   1.775   3.425   2.875  0.0000  0.0000  0.0000
    11DUM    Ar 6085   1.625   3.575   2.875  0.0000  0.0000  0.0000
    11DUM    Ar 6086   1.925   3.425   2.725  0.0000  0.0000  0.0000
    11DUM    Ar 6087   2.075   3.575   2.725  0.0000  0.0000  0.0000
    11DUM    Ar 6088   2.075   3.425   2.875  0.0000  0.0000  0.0000
    11DUM    Ar 6089   1.925   3.575   2.875  0.0000  0.0000  0.0000
    11DUM    Ar 6090   2.225   3.425   2.725  0.0000  0.0000  0.0000
    11DUM    Ar 6091   2.375   3.575   2.725  0.0000  0.0000  0.0000
    11DUM    Ar 6092   2.375   3.425   2.875  0.0000  0.0000  0.0000
    11DUM    Ar 6093   2.225   3.575   2.875  0.0000  0.0000  0.0000
    11DUM    Ar 6094   2.525   3.425   2.725  0.0000  0.0000  0.0000
    11DUM    Ar 6095   2.675   3.575   2.725  0.0000  0.0000  0.0000
    11DUM    Ar 6096   2.525   3.575   2.875  0.0000  0.0000  0.0000
    11DUM    Ar 6097   3.275   3.575   2.725  0.0000  0.0000  0.0000
    11DUM    Ar 6098   3.575   3.575   2.725  0.0000  0.0000  0.0000
    11DUM    Ar 6099   3.575   3.425   2.875  0.0000  0.0000  0.0000
    11DUM    Ar 6100   3.425   3.575   2.875  0.0000  0.0000  0.0000
    11DUM    Ar 6101   3.725   3.425   2.725  0.0000  0.0000  0.0000
    11DUM    Ar 6102   3.875   3.575   2.725  0.0000  0.0000  0.0000
    11DUM    Ar 6103   3.875   3.425   2.875  0.0000  0.0000  0.0000
    11DUM    Ar 6104   3.725   3.575   2.875  0.0000  0.0000  0.0000
    11DUM    Ar 6105   4.025   3.425   2.725  0.0000  0.0000  0.0000
    11DUM    Ar 6106   4.175   3.575   2.725  0.0000  0.0000  0.0000
    11DUM    Ar 6107   4.175   3.425   2.875  0.0000  0.0000  0.0000
    11DUM    Ar 6108   4.025   3.575   2.875  0.0000  0.0000  0.0000
    11DUM    Ar 6109  -0.175   3.725   2.725  0.0000  0.0000  0.0000
    11DUM    Ar 6110  -0.025   3.875   2.725  0.0000  0.0000  0.0000
    11DUM    Ar 6111  -0.025   3.725   2.875  0.0000  0.0000  0.0000
    11DUM    Ar 6112  -0.175   3.875   2.875  0.0000  0.0000  0.0000
    11DUM    Ar 6113   0.125   3.725   2.725  0.0000  0.0000  0.0000
    11DUM    Ar 6114   0.275   3.875   2.725  0.0000  0.0000  0.0000
    11DUM    Ar 6115   0.275   3.725   2.875  0.0000  0.0000  0.0000
    11DUM    Ar 6116   0.125   3.875   2.875  0.0000  0.0000  0.0000
    11DUM    Ar 6117   0.425   3.725   2.725  0.0000  0.0000  0.0000
    11DUM    Ar 6118   0.575   3.875   2.725  0.0000  0.0000  0.0000
    11DUM    Ar 6119   0.575   3.725   2.875  0.0000  0.0000  0.0000
    11DUM    Ar 6120   0.425   3.875   2.875  0.0000  0.0000  0.0000
    11DUM    Ar 6121   0.725   3.725   2.725  0.0000  0.0000  0.0000
    11DUM    Ar 6122   0.875   3.875   2.725  0.0000  0.0000  0.0000
    11DUM    Ar 6123   0.875   3.725   2.875  0.0000  0.0000  0.0000
    11DUM    Ar 6124   0.725   3.875   2.875  0.0000  0.0000  0.0000
    11DUM    Ar 6125   1.025   3.725   2.725  0.0000  0.0000  0.0000
    11DUM    Ar 6126   1.175   3.875   2.725  0.0000  0.0000  0.0000
    11DUM    Ar 6127   1.175   3.725   2.875  0.0000  0.0000  0.0000
    11DUM    Ar 6128   1.025   3.875   2.875  0.0000  0.0000  0.0000
    11DUM    Ar 6129   1.325   3.725   2.725  0.0000  0.0000  0.0000
    11DUM    Ar 6130   1.475   3.875   2.725  0.0000  0.0000  0.0000
    11DUM    Ar 6131   1.475   3.725   2.875  0.0000  0.0000  0.0000
    11DUM    Ar 6132   1.325   3.875   2.875  0.0000  0.0000  0.0000
    11DUM    Ar 6133   1.625   3.725   2.725  0.0000  0.0000  0.0000
    11DUM    Ar 6134   1.775   3.875   2.725  0.0000  0.0000  0.0000
    11DUM    Ar 6135   1.775   3.725   2.875  0.0000  0.0000  0.0000
    11DUM    Ar 6136   1.625   3.875   2.875  0.0000  0.0000  0.0000
    11DUM    Ar 6137   1.925   3.725   2.725  0.0000  0.0000  0.0000
    11DUM    Ar 6138   2.075   3.875   2.725  0.0000  0.0000  0.0000
    11DUM    Ar 6139   2.075   3.725   2.875  0.0000  0.0000  0.0000
    11DUM    Ar 6140   1.925   3.875   2.875  0.0000  0.0000  0.0000
    11DUM    Ar 6141   2.225   3.725   2.725  0.0000  0.0000  0.0000
    11DUM    Ar 6142   2.375   3.875   2.725  0.0000  0.0000  0.0000
    11DUM    Ar 6143   2.375   3.725   2.875  0.0000  0.0000  0.0000
    11DUM    Ar 6144   2.225   3.875   2.875  0.0000  0.0000  0.0000
    11DUM    Ar 6145   2.525   3.725   2.725  0.0000  0.0000  0.0000
    11DUM    Ar 6146   2.675   3.875   2.725  0.0000  0.0000  0.0000
    11DUM    Ar 6147   2.675   3.725   2.875  0.0000  0.0000  0.0000
    11DUM    Ar 6148   2.525   3.875   2.875  0.0000  0.0000  0.0000
    11DUM    Ar 6149   2.825   3.725   2.725  0.0000  0.0000  0.0000
    11DUM    Ar 6150   2.975   3.875   2.725  0.0000  0.0000  0.0000
    11DUM    Ar 6151   2.975   3.725   2.875  0.0000  0.0000  0.0000
    11DUM    Ar 6152   2.825   3.875   2.875  0.0000  0.0000  0.0000
    11DUM    Ar 6153   3.125   3.725   2.725  0.0000  0.0000  0.0000
    11DUM    Ar 6154   3.275   3.875   2.725  0.0000  0.0000  0.0000
    11DUM    Ar 6155   3.275   3.725   2.875  0.0000  0.0000  0.0000
    11DUM    Ar 6156   3.125   3.875   2.875  0.0000  0.0000  0.0000
    11DUM    Ar 6157   3.425   3.725   2.725  0.0000  0.0000  0.0000
    11DUM    Ar 6158   3.575   3.875   2.725  0.0000  0.0000  0.0000
    11DUM    Ar 6159   3.575   3.725   2.875  0.0000  0.0000  0.0000
    11DUM    Ar 6160   3.425   3.875   2.875  0.0000  0.0000  0.0000
    11DUM    Ar 6161   3.725   3.725   2.725  0.0000  0.0000  0.0000
    11DUM    Ar 6162   3.875   3.875   2.725  0.0000  0.0000  0.0000
    11DUM    Ar 6163   3.875   3.725   2.875  0.0000  0.0000  0.0000
    11DUM    Ar 6164   3.725   3.875   2.875  0.0000  0.0000  0.0000
    11DUM    Ar 6165   4.025   3.725   2.725  0.0000  0.0000  0.0000
    11DUM    Ar 6166   4.175   3.875   2.725  0.0000  0.0000  0.0000
    11DUM    Ar 6167   4.175   3.725   2.875  0.0000  0.0000  0.0000
    11DUM    Ar 6168   4.025   3.875   2.875  0.0000  0.0000  0.0000
    11DUM    Ar 6169  -0.175   4.025   2.725  0.0000  0.0000  0.0000
    11DUM    Ar 6170  -0.025   4.175   2.725  0.0000  0.0000  0.0000
    11DUM    Ar 6171  -0.025   4.025   2.875  0.0000  0.0000  0.0000
    11DUM    Ar 6172  -0.175   4.175   2.875  0.0000  0.0000  0.0000
    11DUM    Ar 6173   0.125   4.025   2.725  0.0000  0.0000  0.0000
    11DUM    Ar 6174   0.275   4.175   2.725  0.0000  0.0000  0.0000
    11DUM    Ar 6175   0.275   4.025   2.875  0.0000  0.0000  0.0000
    11DUM    Ar 6176   0.125   4.175   2.875  0.0000  0.0000  0.0000
    11DUM    Ar 6177   0.425   4.025   2.725  0.0000  0.0000  0.0000
    11DUM    Ar 6178   0.575   4.175   2.725  0.0000  0.0000  0.0000
    11DUM    Ar 6179   0.575   4.025   2.875  0.0000  0.0000  0.0000
    11DUM    Ar 6180   0.425   4.175   2.875  0.0000  0.0000  0.0000
    11DUM    Ar 6181   0.725   4.025   2.725  0.0000  0.0000  0.0000
    11DUM    Ar 6182   0.875   4.175   2.725  0.0000  0.0000  0.0000
    11DUM    Ar 6183   0.875   4.025   2.875  0.0000  0.0000  0.0000
    11DUM    Ar 6184   0.725   4.175   2.875  0.0000  0.0000  0.0000
    11DUM    Ar 6185   1.025   4.025   2.725  0.0000  0.0000  0.0000
    11DUM    Ar 6186   1.175   4.175   2.725  0.0000  0.0000  0.0000
    11DUM    Ar 6187   1.175   4.025   2.875  0.0000  0.0000  0.0000
    11DUM    Ar 6188   1.025   4.175   2.875  0.0000  0.0000  0.0000
    11DUM    Ar 6189   1.325   4.025   2.725  0.0000  0.0000  0.0000
    11DUM    Ar 6190   1.475   4.175   2.725  0.0000  0.0000  0.0000
    11DUM    Ar 6191   1.475   4.025   2.875  0.0000  0.0000  0.0000
    11DUM    Ar 6192   1.325   4.175   2.875  0.0000  0.0000  0.0000
    11DUM    Ar 6193   1.625   4.025   2.725  0.0000  0.0000  0.0000
    11DUM    Ar 6194   1.775   4.175   2.725  0.0000  0.0000  0.0000
    11DUM    Ar 6195   1.775   4.025   2.875  0.0000  0.0000  0.0000
    11DUM    Ar 6196   1.625   4.175   2.875  0.0000  0.0000  0.0000
    11DUM    Ar 6197   1.925   4.025   2.725  0.0000  0.0000  0.0000
    11DUM    Ar 6198   2.075   4.175   2.725  0.0000  0.0000  0.0000
    11DUM    Ar 6199   2.075   4.025   2.875  0.0000  0.0000  0.0000
    11DUM    Ar 6200   1.925   4.175   2.875  0.0000  0.0000  0.0000
    11DUM    Ar 6201   2.225   4.025   2.725  0.0000  0.0000  0.0000
    11DUM    Ar 6202   2.375   4.175   2.725  0.0000  0.0000  0.0000
    11DUM    Ar 6203   2.375   4.025   2.875  0.0000  0.0000  0.0000
    11DUM    Ar 6204   2.225   4.175   2.875  0.0000  0.0000  0.0000
    11DUM    Ar 6205   2.525   4.025   2.725  0.0000  0.0000  0.0000
    11DUM    Ar 6206   2.675   4.175   2.725  0.0000  0.0000  0.0000
    11DUM    Ar 6207   2.675   4.025   2.875  0.0000  0.0000  0.0000
    11DUM    Ar 6208   2.525   4.175   2.875  0.0000  0.0000  0.0000
    11DUM    Ar 6209   2.825   4.025   2.725  0.0000  0.0000  0.0000
    11DUM    Ar 6210   2.975   4.175   2.725  0.0000  0.0000  0.0000
    11DUM    Ar 6211   2.975   4.025   2.875  0.0000  0.0000  0.0000
    11DUM    Ar 6212   2.825   4.175   2.875  0.0000  0.0000  0.0000
    11DUM    Ar 6213   3.125   4.025   2.725  0.0000  0.0000  0.0000
    11DUM    Ar 6214   3.275   4.175   2.725  0.0000  0.0000  0.0000
    11DUM    Ar 6215   3.275   4.025   2.875  0.0000  0.0000  0.0000
    11DUM    Ar 6216   3.125   4.175   2.875  0.0000  0.0000  0.0000
    11DUM    Ar 6217   3.425   4.025   2.725  0.0000  0.0000  0.0000
    11DUM    Ar 6218   3.575   4.175   2.725  0.0000  0.0000  0.0000
    11DUM    Ar 6219   3.575   4.025   2.875  0.0000  0.0000  0.0000
    11DUM    Ar 6220   3.425   4.175   2.875  0.0000  0.0000  0.0000
    11DUM    Ar 6221   3.725   4.025   2.725  0.0000  0.0000  0.0000
    11DUM    Ar 6222   3.875   4.175   2.725  0.0000  0.0000  0.0000
    11DUM    Ar 6223   3.875   4.025   2.875  0.0000  0.0000  0.0000
    11DUM    Ar 6224   3.725   4.175   2.875  0.0000  0.0000  0.0000
    11DUM    Ar 6225   4.025   4.025   2.725  0.0000  0.0000  0.0000
    11DUM    Ar 6226   4.175   4.175   2.725  0.0000  0.0000  0.0000
    11DUM    Ar 6227   4.175   4.025   2.875  0.0000  0.0000  0.0000
    11DUM    Ar 6228   4.025   4.175   2.875  0.0000  0.0000  0.0000
    11DUM    Ar 6229  -0.175  -0.175   3.025  0.0000  0.0000  0.0000
    11DUM    Ar 6230  -0.025  -0.025   3.025  0.0000  0.0000  0.0000
    11DUM    Ar 6231  -0.025  -0.175   3.175  0.0000  0.0000  0.0000
    11DUM    Ar 6232  -0.175  -0.025   3.175  0.0000  0.0000  0.0000
    11DUM    Ar 6233   0.125  -0.175   3.025  0.0000  0.0000  0.0000
    11DUM    Ar 6234   0.275  -0.025   3.025  0.0000  0.0000  0.0000
    11DUM    Ar 6235   0.275  -0.175   3.175  0.0000  0.0000  0.0000
    11DUM    Ar 6236   0.125  -0.025   3.175  0.0000  0.0000  0.0000
    11DUM    Ar 6237   0.425  -0.175   3.025  0.0000  0.0000  0.0000
    11DUM    Ar 6238   0.575  -0.025   3.025  0.0000  0.0000  0.0000
    11DUM    Ar 6239   0.575  -0.175   3.175  0.0000  0.0000  0.0000
    11DUM    Ar 6240   0.425  -0.025   3.175  0.0000  0.0000  0.0000
    11DUM    Ar 6241   0.725  -0.175   3.025  0.0000  0.0000  0.0000
    11DUM    Ar 6242   0.875  -0.025   3.025  0.0000  0.0000  0.0000
    11DUM    Ar 6243   0.875  -0.175   3.175  0.0000  0.0000  0.0000
    11DUM    Ar 6244   0.725  -0.025   3.175  0.0000  0.0000  0.0000
    11DUM    Ar 6245   1.025  -0.175   3.025  0.0000  0.0000  0.0000
    11DUM    Ar 6246   1.175  -0.025   3.025  0.0000  0.0000  0.0000
    11DUM    Ar 6247   1.175  -0.175   3.175  0.0000  0.0000  0.0000
    11DUM    Ar 6248   1.025  -0.025   3.175  0.0000  0.0000  0.0000
    11DUM    Ar 6249   1.325  -0.175   3.025  0.0000  0.0000  0.0000
    11DUM    Ar 6250   1.475  -0.025   3.025  0.0000  0.0000  0.0000
    11DUM    Ar 6251   1.475  -0.175   3.175  0.0000  0.0000  0.0000
    11DUM    Ar 6252   1.325  -0.025   3.175  0.0000  0.0000  0.0000
    11DUM    Ar 6253   1.625  -0.175   3.025  0.0000  0.0000  0.0000
    11DUM    Ar 6254   1.775  -0.025   3.025  0.0000  0.0000  0.0000
    11DUM    Ar 6255   1.775  -0.175   3.175  0.0000  0.0000  0.0000
    11DUM    Ar 6256   1.625  -0.025   3.175  0.0000  0.0000  0.0000
    11DUM    Ar 6257   1.925  -0.175   3.025  0.0000  0.0000  0.0000
    11DUM    Ar 6258   2.075  -0.025   3.025  0.0000  0.0000  0.0000
    11DUM    Ar 6259   2.075  -0.175   3.175  0.0000  0.0000  0.0000
    11DUM    Ar 6260   1.925  -0.025   3.175  0.0000  0.0000  0.0000
    11DUM    Ar 6261   2.225  -0.175   3.025  0.0000  0.0000  0.0000
    11DUM    Ar 6262   2.375  -0.025   3.025  0.0000  0.0000  0.0000
    11DUM    Ar 6263   2.375  -0.175   3.175  0.0000  0.0000  0.0000
    11DUM    Ar 6264   2.225  -0.025   3.175  0.0000  0.0000  0.0000
    11DUM    Ar 6265   2.525  -0.175   3.025  0.0000  0.0000  0.0000
    11DUM    Ar 6266   2.675  -0.025   3.025  0.0000  0.0000  0.0000
    11DUM    Ar 6267   2.675  -0.175   3.175  0.0000  0.0000  0.0000
    11DUM    Ar 6268   2.525  -0.025   3.175  0.0000  0.0000  0.0000
    11DUM    Ar 6269   2.825  -0.175   3.025  0.0000  0.0000  0.0000
    11DUM    Ar 6270   2.975  -0.025   3.025  0.0000  0.0000  0.0000
    11DUM    Ar 6271   2.975  -0.175   3.175  0.0000  0.0000  0.0000
    11DUM    Ar 6272   2.825  -0.025   3.175  0.0000  0.0000  0.0000
    11DUM    Ar 6273   3.125  -0.175   3.025  0.0000  0.0000  0.0000
    11DUM    Ar 6274   3.275  -0.025   3.025  0.0000  0.0000  0.0000
    11DUM    Ar 6275   3.275  -0.175   3.175  0.0000  0.0000  0.0000
    11DUM    Ar 6276   3.125  -0.025   3.175  0.0000  0.0000  0.0000
    11DUM    Ar 6277   3.425  -0.175   3.025  0.0000  0.0000  0.0000
    11DUM    Ar 6278   3.575  -0.025   3.025  0.0000  0.0000  0.0000
    11DUM    Ar 6279   3.575  -0.175   3.175  0.0000  0.0000  0.0000
    11DUM    Ar 6280   3.425  -0.025   3.175  0.0000  0.0000  0.0000
    11DUM    Ar 6281   3.725  -0.175   3.025  0.0000  0.0000  0.0000
    11DUM    Ar 6282   3.875  -0.025   3.025  0.0000  0.0000  0.0000
    11DUM    Ar 6283   3.875  -0.175   3.175  0.0000  0.0000  0.0000
    11DUM    Ar 6284   3.725  -0.025   3.175  0.0000  0.0000  0.0000
    11DUM    Ar 6285   4.025  -0.175   3.025  0.0000  0.0000  0.0000
    11DUM    Ar 6286   4.175  -0.025   3.025  0.0000  0.0000  0.0000
    11DUM    Ar 6287   4.175  -0.175   3.175  0.0000  0.0000  0.0000
    11DUM    Ar 6288   4.025  -0.025   3.175  0.0000  0.0000  0.0000
    11DUM    Ar 6289  -0.175   0.125   3.025  0.0000  0.0000  0.0000
    11DUM    Ar 6290  -0.025   0.275   3.025  0.0000  0.0000  0.0000
    11DUM    Ar 6291  -0.025   0.125   3.175  0.0000  0.0000  0.0000
    11DUM    Ar 6292  -0.175   0.275   3.175  0.0000  0.0000  0.0000
    11DUM    Ar 6293   0.125   0.125   3.025  0.0000  0.0000  0.0000
    11DUM    Ar 6294   0.275   0.275   3.025  0.0000  0.0000  0.0000
    11DUM    Ar 6295   0.275   0.125   3.175  0.0000  0.0000  0.0000
    11DUM    Ar 6296   0.125   0.275   3.175  0.0000  0.0000  0.0000
    11DUM    Ar 6297   0.425   0.125   3.025  0.0000  0.0000  0.0000
    11DUM    Ar 6298   0.575   0.275   3.025  0.0000  0.0000  0.0000
    11DUM    Ar 6299   0.575   0.125   3.175  0.0000  0.0000  0.0000
    11DUM    Ar 6300   0.425   0.275   3.175  0.0000  0.0000  0.0000
    11DUM    Ar 6301   0.725   0.125   3.025  0.0000  0.0000  0.0000
    11DUM    Ar 6302   0.875   0.275   3.025  0.0000  0.0000  0.0000
    11DUM    Ar 6303   0.875   0.125   3.175  0.0000  0.0000  0.0000
    11DUM    Ar 6304   0.725   0.275   3.175  0.0000  0.0000  0.0000
    11DUM    Ar 6305   1.025   0.125   3.025  0.0000  0.0000  0.0000
    11DUM    Ar 6306   1.175   0.275   3.025  0.0000  0.0000  0.0000
    11DUM    Ar 6307   1.175   0.125   3.175  0.0000  0.0000  0.0000
    11DUM    Ar 6308   1.025   0.275   3.175  0.0000  0.0000  0.0000
    11DUM    Ar 6309   1.325   0.125   3.025  0.0000  0.0000  0.0000
    11DUM    Ar 6310   1.475   0.275   3.025  0.0000  0.0000  0.0000
    11DUM    Ar 6311   1.475   0.125   3.175  0.0000  0.0000  0.0000
    11DUM    Ar 6312   1.325   0.275   3.175  0.0000  0.0000  0.0000
    11DUM    Ar 6313   1.625   0.125   3.025  0.0000  0.0000  0.0000
    11DUM    Ar 6314   1.775   0.275   3.025  0.0000  0.0000  0.0000
    11DUM    Ar 6315   1.775   0.125   3.175  0.0000  0.0000  0.0000
    11DUM    Ar 6316   1.625   0.275   3.175  0.0000  0.0000  0.0000
    11DUM    Ar 6317   1.925   0.125   3.025  0.0000  0.0000  0.0000
    11DUM    Ar 6318   2.075   0.275   3.025  0.0000  0.0000  0.0000
    11DUM    Ar 6319   2.075   0.125   3.175  0.0000  0.0000  0.0000
    11DUM    Ar 6320   1.925   0.275   3.175  0.0000  0.0000  0.0000
    11DUM    Ar 6321   2.225   0.125   3.025  0.0000  0.0000  0.0000
    11DUM    Ar 6322   2.375   0.275   3.025  0.0000  0.0000  0.0000
    11DUM    Ar 6323   2.375   0.125   3.175  0.0000  0.0000  0.0000
    11DUM    Ar 6324   2.225   0.275   3.175  0.0000  0.0000  0.0000
    11DUM    Ar 6325   2.525   0.125   3.025  0.0000  0.0000  0.0000
    11DUM    Ar 6326   2.675   0.275   3.025  0.0000  0.0000  0.0000
    11DUM    Ar 6327   2.675   0.125   3.175  0.0000  0.0000  0.0000
    11DUM    Ar 6328   2.525   0.275   3.175  0.0000  0.0000  0.0000
    11DUM    Ar 6329   2.825   0.125   3.025  0.0000  0.0000  0.0000
    11DUM    Ar 6330   2.975   0.275   3.025  0.0000  0.0000  0.0000
    11DUM    Ar 6331   2.975   0.125   3.175  0.0000  0.0000  0.0000
    11DUM    Ar 6332   2.825   0.275   3.175  0.0000  0.0000  0.0000
    11DUM    Ar 6333   3.125   0.125   3.025  0.0000  0.0000  0.0000
    11DUM    Ar 6334   3.275   0.275   3.025  0.0000  0.0000  0.0000
    11DUM    Ar 6335   3.275   0.125   3.175  0.0000  0.0000  0.0000
    11DUM    Ar 6336   3.125   0.275   3.175  0.0000  0.0000  0.0000
    11DUM    Ar 6337   3.425   0.125   3.025  0.0000  0.0000  0.0000
    11DUM    Ar 6338   3.575   0.275   3.025  0.0000  0.0000  0.0000
    11DUM    Ar 6339   3.575   0.125   3.175  0.0000  0.0000  0.0000
    11DUM    Ar 6340   3.425   0.275   3.175  0.0000  0.0000  0.0000
    11DUM    Ar 6341   3.725   0.125   3.025  0.0000  0.0000  0.0000
    11DUM    Ar 6342   3.875   0.275   3.025  0.0000  0.0000  0.0000
    11DUM    Ar 6343   3.875   0.125   3.175  0.0000  0.0000  0.0000
    11DUM    Ar 6344   3.725   0.275   3.175  0.0000  0.0000  0.0000
    11DUM    Ar 6345   4.025   0.125   3.025  0.0000  0.0000  0.0000
    11DUM    Ar 6346   4.175   0.275   3.025  0.0000  0.0000  0.0000
    11DUM    Ar 6347   4.175   0.125   3.175  0.0000  0.0000  0.0000
    11DUM    Ar 6348   4.025   0.275   3.175  0.0000  0.0000  0.0000
    11DUM    Ar 6349  -0.175   0.425   3.025  0.0000  0.0000  0.0000
    11DUM    Ar 6350  -0.025   0.575   3.025  0.0000  0.0000  0.0000
    11DUM    Ar 6351  -0.025   0.425   3.175  0.0000  0.0000  0.0000
    11DUM    Ar 6352  -0.175   0.575   3.175  0.0000  0.0000  0.0000
    11DUM    Ar 6353   0.125   0.425   3.025  0.0000  0.0000  0.0000
    11DUM    Ar 6354   0.275   0.575   3.025  0.0000  0.0000  0.0000
    11DUM    Ar 6355   0.275   0.425   3.175  0.0000  0.0000  0.0000
    11DUM    Ar 6356   0.125   0.575   3.175  0.0000  0.0000  0.0000
    11DUM    Ar 6357   0.425   0.425   3.025  0.0000  0.0000  0.0000
    11DUM    Ar 6358   0.575   0.425   3.175  0.0000  0.0000  0.0000
    11DUM    Ar 6359   0.425   0.575   3.175  0.0000  0.0000  0.0000
    11DUM    Ar 6360   0.725   0.425   3.025  0.0000  0.0000  0.0000
    11DUM    Ar 6361   1.325   0.425   3.025  0.0000  0.0000  0.0000
    11DUM    Ar 6362   1.475   0.575   3.025  0.0000  0.0000  0.0000
    11DUM    Ar 6363   1.475   0.425   3.175  0.0000  0.0000  0.0000
    11DUM    Ar 6364   1.625   0.425   3.025  0.0000  0.0000  0.0000
    11DUM    Ar 6365   1.775   0.575   3.025  0.0000  0.0000  0.0000
    11DUM    Ar 6366   1.775   0.425   3.175  0.0000  0.0000  0.0000
    11DUM    Ar 6367   1.625   0.575   3.175  0.0000  0.0000  0.0000
    11DUM    Ar 6368   1.925   0.425   3.025  0.0000  0.0000  0.0000
    11DUM    Ar 6369   2.075   0.575   3.025  0.0000  0.0000  0.0000
    11DUM    Ar 6370   2.075   0.425   3.175  0.0000  0.0000  0.0000
    11DUM    Ar 6371   1.925   0.575   3.175  0.0000  0.0000  0.0000
    11DUM    Ar 6372   2.225   0.425   3.025  0.0000  0.0000  0.0000
    11DUM    Ar 6373   2.375   0.575   3.025  0.0000  0.0000  0.0000
    11DUM    Ar 6374   2.375   0.425   3.175  0.0000  0.0000  0.0000
    11DUM    Ar 6375   2.225   0.575   3.175  0.0000  0.0000  0.0000
    11DUM    Ar 6376   2.525   0.425   3.025  0.0000  0.0000  0.0000
    11DUM    Ar 6377   2.675   0.425   3.175  0.0000  0.0000  0.0000
    11DUM    Ar 6378   2.525   0.575   3.175  0.0000  0.0000  0.0000
    11DUM    Ar 6379   3.275   0.425   3.175  0.0000  0.0000  0.0000
    11DUM    Ar 6380   3.425   0.425   3.025  0.0000  0.0000  0.0000
    11DUM    Ar 6381   3.575   0.575   3.025  0.0000  0.0000  0.0000
    11DUM    Ar 6382   3.575   0.425   3.175  0.0000  0.0000  0.0000
    11DUM    Ar 6383   3.725   0.425   3.025  0.0000  0.0000  0.0000
    11DUM    Ar 6384   3.875   0.575   3.025  0.0000  0.0000  0.0000
    11DUM    Ar 6385   3.875   0.425   3.175  0.0000  0.0000  0.0000
    11DUM    Ar 6386   3.725   0.575   3.175  0.0000  0.0000  0.0000
    11DUM    Ar 6387   4.025   0.425   3.025  0.0000  0.0000  0.0000
    11DUM    Ar 6388   4.175   0.575   3.025  0.0000  0.0000  0.0000
    11DUM    Ar 6389   4.175   0.425   3.175  0.0000  0.0000  0.0000
    11DUM    Ar 6390   4.025   0.575   3.175  0.0000  0.0000  0.0000
    11DUM    Ar 6391  -0.175   0.725   3.025  0.0000  0.0000  0.0000
    11DUM    Ar 6392  -0.025   0.875   3.025  0.0000  0.0000  0.0000
    11DUM    Ar 6393  -0.025   0.725   3.175  0.0000  0.0000  0.0000
    11DUM    Ar 6394  -0.175   0.875   3.175  0.0000  0.0000  0.0000
    11DUM    Ar 6395   0.125   0.725   3.025  0.0000  0.0000  0.0000
    11DUM    Ar 6396   0.275   0.875   3.025  0.0000  0.0000  0.0000
    11DUM    Ar 6397   0.275   0.725   3.175  0.0000  0.0000  0.0000
    11DUM    Ar 6398   0.125   0.875   3.175  0.0000  0.0000  0.0000
    11DUM    Ar 6399   0.425   0.725   3.025  0.0000  0.0000  0.0000
    11DUM    Ar 6400   1.625   0.725   3.025  0.0000  0.0000  0.0000
    11DUM    Ar 6401   1.775   0.875   3.025  0.0000  0.0000  0.0000
    11DUM    Ar 6402   1.775   0.725   3.175  0.0000  0.0000  0.0000
    11DUM    Ar 6403   1.625   0.875   3.175  0.0000  0.0000  0.0000
    11DUM    Ar 6404   1.925   0.725   3.025  0.0000  0.0000  0.0000
    11DUM    Ar 6405   2.075   0.875   3.025  0.0000  0.0000  0.0000
    11DUM    Ar 6406   2.075   0.725   3.175  0.0000  0.0000  0.0000
    11DUM    Ar 6407   1.925   0.875   3.175  0.0000  0.0000  0.0000
    11DUM    Ar 6408   2.225   0.725   3.025  0.0000  0.0000  0.0000
    11DUM    Ar 6409   2.375   0.875   3.025  0.0000  0.0000  0.0000
    11DUM    Ar 6410   2.375   0.725   3.175  0.0000  0.0000  0.0000
    11DUM    Ar 6411   2.225   0.875   3.175  0.0000  0.0000  0.0000
    11DUM    Ar 6412   3.575   0.725   3.175  0.0000  0.0000  0.0000
    11DUM    Ar 6413   3.725   0.725   3.025  0.0000  0.0000  0.0000
    11DUM    Ar 6414   3.875   0.875   3.025  0.0000  0.0000  0.0000
    11DUM    Ar 6415   3.875   0.725   3.175  0.0000  0.0000  0.0000
    11DUM    Ar 6416   3.725   0.875   3.175  0.0000  0.0000  0.0000
    11DUM    Ar 6417   4.025   0.725   3.025  0.0000  0.0000  0.0000
    11DUM    Ar 6418   4.175   0.875   3.025  0.0000  0.0000  0.0000
    11DUM    Ar 6419   4.175   0.725   3.175  0.0000  0.0000  0.0000
    11DUM    Ar 6420   4.025   0.875   3.175  0.0000  0.0000  0.0000
    11DUM    Ar 6421  -0.175   1.025   3.025  0.0000  0.0000  0.0000
    11DUM    Ar 6422  -0.025   1.175   3.025  0.0000  0.0000  0.0000
    11DUM    Ar 6423  -0.025   1.025   3.175  0.0000  0.0000  0.0000
    11DUM    Ar 6424  -0.175   1.175   3.175  0.0000  0.0000  0.0000
    11DUM    Ar 6425   0.125   1.025   3.025  0.0000  0.0000  0.0000
    11DUM    Ar 6426   0.275   1.175   3.025  0.0000  0.0000  0.0000
    11DUM    Ar 6427   0.275   1.025   3.175  0.0000  0.0000  0.0000
    11DUM    Ar 6428   0.125   1.175   3.175  0.0000  0.0000  0.0000
    11DUM    Ar 6429   1.625   1.025   3.025  0.0000  0.0000  0.0000
    11DUM    Ar 6430   1.775   1.175   3.025  0.0000  0.0000  0.0000
    11DUM    Ar 6431   1.775   1.025   3.175  0.0000  0.0000  0.0000
    11DUM    Ar 6432   1.625   1.175   3.175  0.0000  0.0000  0.0000
    11DUM    Ar 6433   1.925   1.025   3.025  0.0000  0.0000  0.0000
    11DUM    Ar 6434   2.075   1.175   3.025  0.0000  0.0000  0.0000
    11DUM    Ar 6435   2.075   1.025   3.175  0.0000  0.0000  0.0000
    11DUM    Ar 6436   1.925   1.175   3.175  0.0000  0.0000  0.0000
    11DUM    Ar 6437   2.225   1.025   3.025  0.0000  0.0000  0.0000
    11DUM    Ar 6438   2.375   1.175   3.025  0.0000  0.0000  0.0000
    11DUM    Ar 6439   2.375   1.025   3.175  0.0000  0.0000  0.0000
    11DUM    Ar 6440   2.225   1.175   3.175  0.0000  0.0000  0.0000
    11DUM    Ar 6441   3.725   1.025   3.025  0.0000  0.0000  0.0000
    11DUM    Ar 6442   3.875   1.175   3.025  0.0000  0.0000  0.0000
    11DUM    Ar 6443   3.875   1.025   3.175  0.0000  0.0000  0.0000
    11DUM    Ar 6444   3.725   1.175   3.175  0.0000  0.0000  0.0000
    11DUM    Ar 6445   4.025   1.025   3.025  0.0000  0.0000  0.0000
    11DUM    Ar 6446   4.175   1.175   3.025  0.0000  0.0000  0.0000
    11DUM    Ar 6447   4.175   1.025   3.175  0.0000  0.0000  0.0000
    11DUM    Ar 6448   4.025   1.175   3.175  0.0000  0.0000  0.0000
    11DUM    Ar 6449  -0.175   1.325   3.025  0.0000  0.0000  0.0000
    11DUM    Ar 6450  -0.025   1.475   3.025  0.0000  0.0000  0.0000
    11DUM    Ar 6451  -0.025   1.325   3.175  0.0000  0.0000  0.0000
    11DUM    Ar 6452  -0.175   1.475   3.175  0.0000  0.0000  0.0000
    11DUM    Ar 6453   0.125   1.325   3.025  0.0000  0.0000  0.0000
    11DUM    Ar 6454   0.275   1.475   3.025  0.0000  0.0000  0.0000
    11DUM    Ar 6455   0.275   1.325   3.175  0.0000  0.0000  0.0000
    11DUM    Ar 6456   0.125   1.475   3.175  0.0000  0.0000  0.0000
    11DUM    Ar 6457   0.425   1.325   3.025  0.0000  0.0000  0.0000
    11DUM    Ar 6458   0.575   1.475   3.025  0.0000  0.0000  0.0000
    11DUM    Ar 6459   0.425   1.475   3.175  0.0000  0.0000  0.0000
    11DUM    Ar 6460   1.475   1.475   3.025  0.0000  0.0000  0.0000
    11DUM    Ar 6461   1.625   1.325   3.025  0.0000  0.0000  0.0000
    11DUM    Ar 6462   1.775   1.475   3.025  0.0000  0.0000  0.0000
    11DUM    Ar 6463   1.775   1.325   3.175  0.0000  0.0000  0.0000
    11DUM    Ar 6464   1.625   1.475   3.175  0.0000  0.0000  0.0000
    11DUM    Ar 6465   1.925   1.325   3.025  0.0000  0.0000  0.0000
    11DUM    Ar 6466   2.075   1.475   3.025  0.0000  0.0000  0.0000
    11DUM    Ar 6467   2.075   1.325   3.175  0.0000  0.0000  0.0000
    11DUM    Ar 6468   1.925   1.475   3.175  0.0000  0.0000  0.0000
    11DUM    Ar 6469   2.225   1.325   3.025  0.0000  0.0000  0.0000
    11DUM    Ar 6470   2.375   1.475   3.025  0.0000  0.0000  0.0000
    11DUM    Ar 6471   2.375   1.325   3.175  0.0000  0.0000  0.0000
    11DUM    Ar 6472   2.225   1.475   3.175  0.0000  0.0000  0.0000
    11DUM    Ar 6473   2.525   1.475   3.175  0.0000  0.0000  0.0000
    11DUM    Ar 6474   3.575   1.475   3.025  0.0000  0.0000  0.0000
    11DUM    Ar 6475   3.575   1.325   3.175  0.0000  0.0000  0.0000
    11DUM    Ar 6476   3.425   1.475   3.175  0.0000  0.0000  0.0000
    11DUM    Ar 6477   3.725   1.325   3.025  0.0000  0.0000  0.0000
    11DUM    Ar 6478   3.875   1.475   3.025  0.0000  0.0000  0.0000
    11DUM    Ar 6479   3.875   1.325   3.175  0.0000  0.0000  0.0000
    11DUM    Ar 6480   3.725   1.475   3.175  0.0000  0.0000  0.0000
    11DUM    Ar 6481   4.025   1.325   3.025  0.0000  0.0000  0.0000
    11DUM    Ar 6482   4.175   1.475   3.025  0.0000  0.0000  0.0000
    11DUM    Ar 6483   4.175   1.325   3.175  0.0000  0.0000  0.0000
    11DUM    Ar 6484   4.025   1.475   3.175  0.0000  0.0000  0.0000
    11DUM    Ar 6485  -0.175   1.625   3.025  0.0000  0.0000  0.0000
    11DUM    Ar 6486  -0.025   1.775   3.025  0.0000  0.0000  0.0000
    11DUM    Ar 6487  -0.025   1.625   3.175  0.0000  0.0000  0.0000
    11DUM    Ar 6488  -0.175   1.775   3.175  0.0000  0.0000  0.0000
    11DUM    Ar 6489   0.125   1.625   3.025  0.0000  0.0000  0.0000
    11DUM    Ar 6490   0.275   1.775   3.025  0.0000  0.0000  0.0000
    11DUM    Ar 6491   0.275   1.625   3.175  0.0000  0.0000  0.0000
    11DUM    Ar 6492   0.125   1.775   3.175  0.0000  0.0000  0.0000
    11DUM    Ar 6493   0.425   1.625   3.025  0.0000  0.0000  0.0000
    11DUM    Ar 6494   0.575   1.775   3.025  0.0000  0.0000  0.0000
    11DUM    Ar 6495   0.575   1.625   3.175  0.0000  0.0000  0.0000
    11DUM    Ar 6496   0.425   1.775   3.175  0.0000  0.0000  0.0000
    11DUM    Ar 6497   0.725   1.625   3.025  0.0000  0.0000  0.0000
    11DUM    Ar 6498   0.875   1.775   3.025  0.0000  0.0000  0.0000
    11DUM    Ar 6499   0.875   1.625   3.175  0.0000  0.0000  0.0000
    11DUM    Ar 6500   0.725   1.775   3.175  0.0000  0.0000  0.0000
    11DUM    Ar 6501   1.025   1.625   3.025  0.0000  0.0000  0.0000
    11DUM    Ar 6502   1.175   1.775   3.025  0.0000  0.0000  0.0000
    11DUM    Ar 6503   1.175   1.625   3.175  0.0000  0.0000  0.0000
    11DUM    Ar 6504   1.025   1.775   3.175  0.0000  0.0000  0.0000
    11DUM    Ar 6505   1.325   1.625   3.025  0.0000  0.0000  0.0000
    11DUM    Ar 6506   1.475   1.775   3.025  0.0000  0.0000  0.0000
    11DUM    Ar 6507   1.475   1.625   3.175  0.0000  0.0000  0.0000
    11DUM    Ar 6508   1.325   1.775   3.175  0.0000  0.0000  0.0000
    11DUM    Ar 6509   1.625   1.625   3.025  0.0000  0.0000  0.0000
    11DUM    Ar 6510   1.775   1.775   3.025  0.0000  0.0000  0.0000
    11DUM    Ar 6511   1.775   1.625   3.175  0.0000  0.0000  0.0000
    11DUM    Ar 6512   1.625   1.775   3.175  0.0000  0.0000  0.0000
    11DUM    Ar 6513   1.925   1.625   3.025  0.0000  0.0000  0.0000
    11DUM    Ar 6514   2.075   1.775   3.025  0.0000  0.0000  0.0000
    11DUM    Ar 6515   2.075   1.625   3.175  0.0000  0.0000  0.0000
    11DUM    Ar 6516   1.925   1.775   3.175  0.0000  0.0000  0.0000
    11DUM    Ar 6517   2.225   1.625   3.025  0.0000  0.0000  0.0000
    11DUM    Ar 6518   2.375   1.775   3.025  0.0000  0.0000  0.0000
    11DUM    Ar 6519   2.375   1.625   3.175  0.0000  0.0000  0.0000
    11DUM    Ar 6520   2.225   1.775   3.175  0.0000  0.0000  0.0000
    11DUM    Ar 6521   2.525   1.625   3.025  0.0000  0.0000  0.0000
    11DUM    Ar 6522   2.675   1.775   3.025  0.0000  0.0000  0.0000
    11DUM    Ar 6523   2.675   1.625   3.175  0.0000  0.0000  0.0000
    11DUM    Ar 6524   2.525   1.775   3.175  0.0000  0.0000  0.0000
    11DUM    Ar 6525   2.825   1.625   3.025  0.0000  0.0000  0.0000
    11DUM    Ar 6526   2.975   1.775   3.025  0.0000  0.0000  0.0000
    11DUM    Ar 6527   2.975   1.625   3.175  0.0000  0.0000  0.0000
    11DUM    Ar 6528   2.825   1.775   3.175  0.0000  0.0000  0.0000
    11DUM    Ar 6529   3.125   1.625   3.025  0.0000  0.0000  0.0000
    11DUM    Ar 6530   3.275   1.775   3.025  0.0000  0.0000  0.0000
    11DUM    Ar 6531   3.275   1.625   3.175  0.0000  0.0000  0.0000
    11DUM    Ar 6532   3.125   1.775   3.175  0.0000  0.0000  0.0000
    11DUM    Ar 6533   3.425   1.625   3.025  0.0000  0.0000  0.0000
    11DUM    Ar 6534   3.575   1.775   3.025  0.0000  0.0000  0.0000
    11DUM    Ar 6535   3.575   1.625   3.175  0.0000  0.0000  0.0000
    11DUM    Ar 6536   3.425   1.775   3.175  0.0000  0.0000  0.0000
    11DUM    Ar 6537   3.725   1.625   3.025  0.0000  0.0000  0.0000
    11DUM    Ar 6538   3.875   1.775   3.025  0.0000  0.0000  0.0000
    11DUM    Ar 6539   3.875   1.625   3.175  0.0000  0.0000  0.0000
    11DUM    Ar 6540   3.725   1.775   3.175  0.0000  0.0000  0.0000
    11DUM    Ar 6541   4.025   1.625   3.025  0.0000  0.0000  0.0000
    11DUM    Ar 6542   4.175   1.775   3.025  0.0000  0.0000  0.0000
    11DUM    Ar 6543   4.175   1.625   3.175  0.0000  0.0000  0.0000
    11DUM    Ar 6544   4.025   1.775   3.175  0.0000  0.0000  0.0000
    11DUM    Ar 6545  -0.175   1.925   3.025  0.0000  0.0000  0.0000
    11DUM    Ar 6546  -0.025   2.075   3.025  0.0000  0.0000  0.0000
    11DUM    Ar 6547  -0.025   1.925   3.175  0.0000  0.0000  0.0000
    11DUM    Ar 6548  -0.175   2.075   3.175  0.0000  0.0000  0.0000
    11DUM    Ar 6549   0.125   1.925   3.025  0.0000  0.0000  0.0000
    11DUM    Ar 6550   0.275   2.075   3.025  0.0000  0.0000  0.0000
    11DUM    Ar 6551   0.275   1.925   3.175  0.0000  0.0000  0.0000
    11DUM    Ar 6552   0.125   2.075   3.175  0.0000  0.0000  0.0000
    11DUM    Ar 6553   0.425   1.925   3.025  0.0000  0.0000  0.0000
    11DUM    Ar 6554   0.575   2.075   3.025  0.0000  0.0000  0.0000
    11DUM    Ar 6555   0.575   1.925   3.175  0.0000  0.0000  0.0000
    11DUM    Ar 6556   0.425   2.075   3.175  0.0000  0.0000  0.0000
    11DUM    Ar 6557   0.725   1.925   3.025  0.0000  0.0000  0.0000
    11DUM    Ar 6558   0.875   2.075   3.025  0.0000  0.0000  0.0000
    11DUM    Ar 6559   0.875   1.925   3.175  0.0000  0.0000  0.0000
    11DUM    Ar 6560   0.725   2.075   3.175  0.0000  0.0000  0.0000
    11DUM    Ar 6561   1.025   1.925   3.025  0.0000  0.0000  0.0000
    11DUM    Ar 6562   1.175   2.075   3.025  0.0000  0.0000  0.0000
    11DUM    Ar 6563   1.175   1.925   3.175  0.0000  0.0000  0.0000
    11DUM    Ar 6564   1.025   2.075   3.175  0.0000  0.0000  0.0000
    11DUM    Ar 6565   1.325   1.925   3.025  0.0000  0.0000  0.0000
    11DUM    Ar 6566   1.475   2.075   3.025  0.0000  0.0000  0.0000
    11DUM    Ar 6567   1.475   1.925   3.175  0.0000  0.0000  0.0000
    11DUM    Ar 6568   1.325   2.075   3.175  0.0000  0.0000  0.0000
    11DUM    Ar 6569   1.625   1.925   3.025  0.0000  0.0000  0.0000
    11DUM    Ar 6570   1.775   2.075   3.025  0.0000  0.0000  0.0000
    11DUM    Ar 6571   1.775   1.925   3.175  0.0000  0.0000  0.0000
    11DUM    Ar 6572   1.625   2.075   3.175  0.0000  0.0000  0.0000
    11DUM    Ar 6573   1.925   1.925   3.025  0.0000  0.0000  0.0000
    11DUM    Ar 6574   2.075   2.075   3.025  0.0000  0.0000  0.0000
    11DUM    Ar 6575   2.075   1.925   3.175  0.0000  0.0000  0.0000
    11DUM    Ar 6576   1.925   2.075   3.175  0.0000  0.0000  0.0000
    11DUM    Ar 6577   2.225   1.925   3.025  0.0000  0.0000  0.0000
    11DUM    Ar 6578   2.375   2.075   3.025  0.0000  0.0000  0.0000
    11DUM    Ar 6579   2.375   1.925   3.175  0.0000  0.0000  0.0000
    11DUM    Ar 6580   2.225   2.075   3.175  0.0000  0.0000  0.0000
    11DUM    Ar 6581   2.525   1.925   3.025  0.0000  0.0000  0.0000
    11DUM    Ar 6582   2.675   2.075   3.025  0.0000  0.0000  0.0000
    11DUM    Ar 6583   2.675   1.925   3.175  0.0000  0.0000  0.0000
    11DUM    Ar 6584   2.525   2.075   3.175  0.0000  0.0000  0.0000
    11DUM    Ar 6585   2.825   1.925   3.025  0.0000  0.0000  0.0000
    11DUM    Ar 6586   2.975   2.075   3.025  0.0000  0.0000  0.0000
    11DUM    Ar 6587   2.975   1.925   3.175  0.0000  0.0000  0.0000
    11DUM    Ar 6588   2.825   2.075   3.175  0.0000  0.0000  0.0000
    11DUM    Ar 6589   3.125   1.925   3.025  0.0000  0.0000  0.0000
    11DUM    Ar 6590   3.275   2.075   3.025  0.0000  0.0000  0.0000
    11DUM    Ar 6591   3.275   1.925   3.175  0.0000  0.0000  0.0000
    11DUM    Ar 6592   3.125   2.075   3.175  0.0000  0.0000  0.0000
    11DUM    Ar 6593   3.425   1.925   3.025  0.0000  0.0000  0.0000
    11DUM    Ar 6594   3.575   2.075   3.025  0.0000  0.0000  0.0000
    11DUM    Ar 6595   3.575   1.925   3.175  0.0000  0.0000  0.0000
    11DUM    Ar 6596   3.425   2.075   3.175  0.0000  0.0000  0.0000
    11DUM    Ar 6597   3.725   1.925   3.025  0.0000  0.0000  0.0000
    11DUM    Ar 6598   3.875   2.075   3.025  0.0000  0.0000  0.0000
    11DUM    Ar 6599   3.875   1.925   3.175  0.0000  0.0000  0.0000
    11DUM    Ar 6600   3.725   2.075   3.175  0.0000  0.0000  0.0000
    11DUM    Ar 6601   4.025   1.925   3.025  0.0000  0.0000  0.0000
    11DUM    Ar 6602   4.175   2.075   3.025  0.0000  0.0000  0.0000
    11DUM    Ar 6603   4.175   1.925   3.175  0.0000  0.0000  0.0000
    11DUM    Ar 6604   4.025   2.075   3.175  0.0000  0.0000  0.0000
    11DUM    Ar 6605  -0.175   2.225   3.025  0.0000  0.0000  0.0000
    11DUM    Ar 6606  -0.025   2.375   3.025  0.0000  0.0000  0.0000
    11DUM    Ar 6607  -0.025   2.225   3.175  0.0000  0.0000  0.0000
    11DUM    Ar 6608  -0.175   2.375   3.175  0.0000  0.0000  0.0000
    11DUM    Ar 6609   0.125   2.225   3.025  0.0000  0.0000  0.0000
    11DUM    Ar 6610   0.275   2.375   3.025  0.0000  0.0000  0.0000
    11DUM    Ar 6611   0.275   2.225   3.175  0.0000  0.0000  0.0000
    11DUM    Ar 6612   0.125   2.375   3.175  0.0000  0.0000  0.0000
    11DUM    Ar 6613   0.425   2.225   3.025  0.0000  0.0000  0.0000
    11DUM    Ar 6614   0.575   2.375   3.025  0.0000  0.0000  0.0000
    11DUM    Ar 6615   0.575   2.225   3.175  0.0000  0.0000  0.0000
    11DUM    Ar 6616   0.425   2.375   3.175  0.0000  0.0000  0.0000
    11DUM    Ar 6617   0.725   2.225   3.025  0.0000  0.0000  0.0000
    11DUM    Ar 6618   0.875   2.375   3.025  0.0000  0.0000  0.0000
    11DUM    Ar 6619   0.875   2.225   3.175  0.0000  0.0000  0.0000
    11DUM    Ar 6620   0.725   2.375   3.175  0.0000  0.0000  0.0000
    11DUM    Ar 6621   1.025   2.225   3.025  0.0000  0.0000  0.0000
    11DUM    Ar 6622   1.175   2.375   3.025  0.0000  0.0000  0.0000
    11DUM    Ar 6623   1.175   2.225   3.175  0.0000  0.0000  0.0000
    11DUM    Ar 6624   1.025   2.375   3.175  0.0000  0.0000  0.0000
    11DUM    Ar 6625   1.325   2.225   3.025  0.0000  0.0000  0.0000
    11DUM    Ar 6626   1.475   2.375   3.025  0.0000  0.0000  0.0000
    11DUM    Ar 6627   1.475   2.225   3.175  0.0000  0.0000  0.0000
    11DUM    Ar 6628   1.325   2.375   3.175  0.0000  0.0000  0.0000
    11DUM    Ar 6629   1.625   2.225   3.025  0.0000  0.0000  0.0000
    11DUM    Ar 6630   1.775   2.375   3.025  0.0000  0.0000  0.0000
    11DUM    Ar 6631   1.775   2.225   3.175  0.0000  0.0000  0.0000
    11DUM    Ar 6632   1.625   2.375   3.175  0.0000  0.0000  0.0000
    11DUM    Ar 6633   1.925   2.225   3.025  0.0000  0.0000  0.0000
    11DUM    Ar 6634   2.075   2.375   3.025  0.0000  0.0000  0.0000
    11DUM    Ar 6635   2.075   2.225   3.175  0.0000  0.0000  0.0000
    11DUM    Ar 6636   1.925   2.375   3.175  0.0000  0.0000  0.0000
    11DUM    Ar 6637   2.225   2.225   3.025  0.0000  0.0000  0.0000
    11DUM    Ar 6638   2.375   2.375   3.025  0.0000  0.0000  0.0000
    11DUM    Ar 6639   2.375   2.225   3.175  0.0000  0.0000  0.0000
    11DUM    Ar 6640   2.225   2.375   3.175  0.0000  0.0000  0.0000
    11DUM    Ar 6641   2.525   2.225   3.025  0.0000  0.0000  0.0000
    11DUM    Ar 6642   2.675   2.375   3.025  0.0000  0.0000  0.0000
    11DUM    Ar 6643   2.675   2.225   3.175  0.0000  0.0000  0.0000
    11DUM    Ar 6644   2.525   2.375   3.175  0.0000  0.0000  0.0000
    11DUM    Ar 6645   2.825   2.225   3.025  0.0000  0.0000  0.0000
    11DUM    Ar 6646   2.975   2.375   3.025  0.0000  0.0000  0.0000
    11DUM    Ar 6647   2.975   2.225   3.175  0.0000  0.0000  0.0000
    11DUM    Ar 6648   2.825   2.375   3.175  0.0000  0.0000  0.0000
    11DUM    Ar 6649   3.125   2.225   3.025  0.0000  0.0000  0.0000
    11DUM    Ar 6650   3.275   2.375   3.025  0.0000  0.0000  0.0000
    11DUM    Ar 6651   3.275   2.225   3.175  0.0000  0.0000  0.0000
    11DUM    Ar 6652   3.125   2.375   3.175  0.0000  0.0000  0.0000
    11DUM    Ar 6653   3.425   2.225   3.025  0.0000  0.0000  0.0000
    11DUM    Ar 6654   3.575   2.375   3.025  0.0000  0.0000  0.0000
    11DUM    Ar 6655   3.575   2.225   3.175  0.0000  0.0000  0.0000
    11DUM    Ar 6656   3.425   2.375   3.175  0.0000  0.0000  0.0000
    11DUM    Ar 6657   3.725   2.225   3.025  0.0000  0.0000  0.0000
    11DUM    Ar 6658   3.875   2.375   3.025  0.0000  0.0000  0.0000
    11DUM    Ar 6659   3.875   2.225   3.175  0.0000  0.0000  0.0000
    11DUM    Ar 6660   3.725   2.375   3.175  0.0000  0.0000  0.0000
    11DUM    Ar 6661   4.025   2.225   3.025  0.0000  0.0000  0.0000
    11DUM    Ar 6662   4.175   2.375   3.025  0.0000  0.0000  0.0000
    11DUM    Ar 6663   4.175   2.225   3.175  0.0000  0.0000  0.0000
    11DUM    Ar 6664   4.025   2.375   3.175  0.0000  0.0000  0.0000
    11DUM    Ar 6665  -0.175   2.525   3.025  0.0000  0.0000  0.0000
    11DUM    Ar 6666  -0.025   2.675   3.025  0.0000  0.0000  0.0000
    11DUM    Ar 6667  -0.025   2.525   3.175  0.0000  0.0000  0.0000
    11DUM    Ar 6668  -0.175   2.675   3.175  0.0000  0.0000  0.0000
    11DUM    Ar 6669   0.125   2.525   3.025  0.0000  0.0000  0.0000
    11DUM    Ar 6670   0.275   2.675   3.025  0.0000  0.0000  0.0000
    11DUM    Ar 6671   0.275   2.525   3.175  0.0000  0.0000  0.0000
    11DUM    Ar 6672   0.125   2.675   3.175  0.0000  0.0000  0.0000
    11DUM    Ar 6673   0.425   2.525   3.025  0.0000  0.0000  0.0000
    11DUM    Ar 6674   0.575   2.525   3.175  0.0000  0.0000  0.0000
    11DUM    Ar 6675   0.425   2.675   3.175  0.0000  0.0000  0.0000
    11DUM    Ar 6676   1.475   2.525   3.175  0.0000  0.0000  0.0000
    11DUM    Ar 6677   1.625   2.525   3.025  0.0000  0.0000  0.0000
    11DUM    Ar 6678   1.775   2.675   3.025  0.0000  0.0000  0.0000
    11DUM    Ar 6679   1.775   2.525   3.175  0.0000  0.0000  0.0000
    11DUM    Ar 6680   1.625   2.675   3.175  0.0000  0.0000  0.0000
    11DUM    Ar 6681   1.925   2.525   3.025  0.0000  0.0000  0.0000
    11DUM    Ar 6682   2.075   2.675   3.025  0.0000  0.0000  0.0000
    11DUM    Ar 6683   2.075   2.525   3.175  0.0000  0.0000  0.0000
    11DUM    Ar 6684   1.925   2.675   3.175  0.0000  0.0000  0.0000
    11DUM    Ar 6685   2.225   2.525   3.025  0.0000  0.0000  0.0000
    11DUM    Ar 6686   2.375   2.675   3.025  0.0000  0.0000  0.0000
    11DUM    Ar 6687   2.375   2.525   3.175  0.0000  0.0000  0.0000
    11DUM    Ar 6688   2.225   2.675   3.175  0.0000  0.0000  0.0000
    11DUM    Ar 6689   2.525   2.525   3.025  0.0000  0.0000  0.0000
    11DUM    Ar 6690   3.425   2.525   3.025  0.0000  0.0000  0.0000
    11DUM    Ar 6691   3.575   2.675   3.025  0.0000  0.0000  0.0000
    11DUM    Ar 6692   3.575   2.525   3.175  0.0000  0.0000  0.0000
    11DUM    Ar 6693   3.725   2.525   3.025  0.0000  0.0000  0.0000
    11DUM    Ar 6694   3.875   2.675   3.025  0.0000  0.0000  0.0000
    11DUM    Ar 6695   3.875   2.525   3.175  0.0000  0.0000  0.0000
    11DUM    Ar 6696   3.725   2.675   3.175  0.0000  0.0000  0.0000
    11DUM    Ar 6697   4.025   2.525   3.025  0.0000  0.0000  0.0000
    11DUM    Ar 6698   4.175   2.675   3.025  0.0000  0.0000  0.0000
    11DUM    Ar 6699   4.175   2.525   3.175  0.0000  0.0000  0.0000
    11DUM    Ar 6700   4.025   2.675   3.175  0.0000  0.0000  0.0000
    11DUM    Ar 6701  -0.175   2.825   3.025  0.0000  0.0000  0.0000
    11DUM    Ar 6702  -0.025   2.975   3.025  0.0000  0.0000  0.0000
    11DUM    Ar 6703  -0.025   2.825   3.175  0.0000  0.0000  0.0000
    11DUM    Ar 6704  -0.175   2.975   3.175  0.0000  0.0000  0.0000
    11DUM    Ar 6705   0.125   2.825   3.025  0.0000  0.0000  0.0000
    11DUM    Ar 6706   0.275   2.975   3.025  0.0000  0.0000  0.0000
    11DUM    Ar 6707   0.275   2.825   3.175  0.0000  0.0000  0.0000
    11DUM    Ar 6708   0.125   2.975   3.175  0.0000  0.0000  0.0000
    11DUM    Ar 6709   1.625   2.825   3.025  0.0000  0.0000  0.0000
    11DUM    Ar 6710   1.775   2.975   3.025  0.0000  0.0000  0.0000
    11DUM    Ar 6711   1.775   2.825   3.175  0.0000  0.0000  0.0000
    11DUM    Ar 6712   1.625   2.975   3.175  0.0000  0.0000  0.0000
    11DUM    Ar 6713   1.925   2.825   3.025  0.0000  0.0000  0.0000
    11DUM    Ar 6714   2.075   2.975   3.025  0.0000  0.0000  0.0000
    11DUM    Ar 6715   2.075   2.825   3.175  0.0000  0.0000  0.0000
    11DUM    Ar 6716   1.925   2.975   3.175  0.0000  0.0000  0.0000
    11DUM    Ar 6717   2.225   2.825   3.025  0.0000  0.0000  0.0000
    11DUM    Ar 6718   2.375   2.975   3.025  0.0000  0.0000  0.0000
    11DUM    Ar 6719   2.375   2.825   3.175  0.0000  0.0000  0.0000
    11DUM    Ar 6720   2.225   2.975   3.175  0.0000  0.0000  0.0000
    11DUM    Ar 6721   3.725   2.825   3.025  0.0000  0.0000  0.0000
    11DUM    Ar 6722   3.875   2.975   3.025  0.0000  0.0000  0.0000
    11DUM    Ar 6723   3.875   2.825   3.175  0.0000  0.0000  0.0000
    11DUM    Ar 6724   3.725   2.975   3.175  0.0000  0.0000  0.0000
    11DUM    Ar 6725   4.025   2.825   3.025  0.0000  0.0000  0.0000
    11DUM    Ar 6726   4.175   2.975   3.025  0.0000  0.0000  0.0000
    11DUM    Ar 6727   4.175   2.825   3.175  0.0000  0.0000  0.0000
    11DUM    Ar 6728   4.025   2.975   3.175  0.0000  0.0000  0.0000
    11DUM    Ar 6729  -0.175   3.125   3.025  0.0000  0.0000  0.0000
    11DUM    Ar 6730  -0.025   3.275   3.025  0.0000  0.0000  0.0000
    11DUM    Ar 6731  -0.025   3.125   3.175  0.0000  0.0000  0.0000
    11DUM    Ar 6732  -0.175   3.275   3.175  0.0000  0.0000  0.0000
    11DUM    Ar 6733   0.125   3.125   3.025  0.0000  0.0000  0.0000
    11DUM    Ar 6734   0.275   3.275   3.025  0.0000  0.0000  0.0000
    11DUM    Ar 6735   0.275   3.125   3.175  0.0000  0.0000  0.0000
    11DUM    Ar 6736   0.125   3.275   3.175  0.0000  0.0000  0.0000
    11DUM    Ar 6737   0.425   3.275   3.175  0.0000  0.0000  0.0000
    11DUM    Ar 6738   1.625   3.125   3.025  0.0000  0.0000  0.0000
    11DUM    Ar 6739   1.775   3.275   3.025  0.0000  0.0000  0.0000
    11DUM    Ar 6740   1.775   3.125   3.175  0.0000  0.0000  0.0000
    11DUM    Ar 6741   1.625   3.275   3.175  0.0000  0.0000  0.0000
    11DUM    Ar 6742   1.925   3.125   3.025  0.0000  0.0000  0.0000
    11DUM    Ar 6743   2.075   3.275   3.025  0.0000  0.0000  0.0000
    11DUM    Ar 6744   2.075   3.125   3.175  0.0000  0.0000  0.0000
    11DUM    Ar 6745   1.925   3.275   3.175  0.0000  0.0000  0.0000
    11DUM    Ar 6746   2.225   3.125   3.025  0.0000  0.0000  0.0000
    11DUM    Ar 6747   2.375   3.275   3.025  0.0000  0.0000  0.0000
    11DUM    Ar 6748   2.375   3.125   3.175  0.0000  0.0000  0.0000
    11DUM    Ar 6749   2.225   3.275   3.175  0.0000  0.0000  0.0000
    11DUM    Ar 6750   3.575   3.275   3.025  0.0000  0.0000  0.0000
    11DUM    Ar 6751   3.725   3.125   3.025  0.0000  0.0000  0.0000
    11DUM    Ar 6752   3.875   3.275   3.025  0.0000  0.0000  0.0000
    11DUM    Ar 6753   3.875   3.125   3.175  0.0000  0.0000  0.0000
    11DUM    Ar 6754   3.725   3.275   3.175  0.0000  0.0000  0.0000
    11DUM    Ar 6755   4.025   3.125   3.025  0.0000  0.0000  0.0000
    11DUM    Ar 6756   4.175   3.275   3.025  0.0000  0.0000  0.0000
    11DUM    Ar 6757   4.175   3.125   3.175  0.0000  0.0000  0.0000
    11DUM    Ar 6758   4.025   3.275   3.175  0.0000  0.0000  0.0000
    11DUM    Ar 6759  -0.175   3.425   3.025  0.0000  0.0000  0.0000
    11DUM    Ar 6760  -0.025   3.575   3.025  0.0000  0.0000  0.0000
    11DUM    Ar 6761  -0.025   3.425   3.175  0.0000  0.0000  0.0000
    11DUM    Ar 6762  -0.175   3.575   3.175  0.0000  0.0000  0.0000
    11DUM    Ar 6763   0.125   3.425   3.025  0.0000  0.0000  0.0000
    11DUM    Ar 6764   0.275   3.575   3.025  0.0000  0.0000  0.0000
    11DUM    Ar 6765   0.275   3.425   3.175  0.0000  0.0000  0.0000
    11DUM    Ar 6766   0.125   3.575   3.175  0.0000  0.0000  0.0000
    11DUM    Ar 6767   0.425   3.425   3.025  0.0000  0.0000  0.0000
    11DUM    Ar 6768   0.575   3.575   3.025  0.0000  0.0000  0.0000
    11DUM    Ar 6769   0.425   3.575   3.175  0.0000  0.0000  0.0000
    11DUM    Ar 6770   0.725   3.575   3.175  0.0000  0.0000  0.0000
    11DUM    Ar 6771   1.475   3.575   3.025  0.0000  0.0000  0.0000
    11DUM    Ar 6772   1.475   3.425   3.175  0.0000  0.0000  0.0000
    11DUM    Ar 6773   1.325   3.575   3.175  0.0000  0.0000  0.0000
    11DUM    Ar 6774   1.625   3.425   3.025  0.0000  0.0000  0.0000
    11DUM    Ar 6775   1.775   3.575   3.025  0.0000  0.0000  0.0000
    11DUM    Ar 6776   1.775   3.425   3.175  0.0000  0.0000  0.0000
    11DUM    Ar 6777   1.625   3.575   3.175  0.0000  0.0000  0.0000
    11DUM    Ar 6778   1.925   3.425   3.025  0.0000  0.0000  0.0000
    11DUM    Ar 6779   2.075   3.575   3.025  0.0000  0.0000  0.0000
    11DUM    Ar 6780   2.075   3.425   3.175  0.0000  0.0000  0.0000
    11DUM    Ar 6781   1.925   3.575   3.175  0.0000  0.0000  0.0000
    11DUM    Ar 6782   2.225   3.425   3.025  0.0000  0.0000  0.0000
    11DUM    Ar 6783   2.375   3.575   3.025  0.0000  0.0000  0.0000
    11DUM    Ar 6784   2.375   3.425   3.175  0.0000  0.0000  0.0000
    11DUM    Ar 6785   2.225   3.575   3.175  0.0000  0.0000  0.0000
    11DUM    Ar 6786   2.525   3.425   3.025  0.0000  0.0000  0.0000
    11DUM    Ar 6787   2.675   3.575   3.025  0.0000  0.0000  0.0000
    11DUM    Ar 6788   2.525   3.575   3.175  0.0000  0.0000  0.0000
    11DUM    Ar 6789   3.275   3.575   3.025  0.0000  0.0000  0.0000
    11DUM    Ar 6790   3.575   3.575   3.025  0.0000  0.0000  0.0000
    11DUM    Ar 6791   3.575   3.425   3.175  0.0000  0.0000  0.0000
    11DUM    Ar 6792   3.425   3.575   3.175  0.0000  0.0000  0.0000
    11DUM    Ar 6793   3.725   3.425   3.025  0.0000  0.0000  0.0000
    11DUM    Ar 6794   3.875   3.575   3.025  0.0000  0.0000  0.0000
    11DUM    Ar 6795   3.875   3.425   3.175  0.0000  0.0000  0.0000
    11DUM    Ar 6796   3.725   3.575   3.175  0.0000  0.0000  0.0000
    11DUM    Ar 6797   4.025   3.425   3.025  0.0000  0.0000  0.0000
    11DUM    Ar 6798   4.175   3.575   3.025  0.0000  0.0000  0.0000
    11DUM    Ar 6799   4.175   3.425   3.175  0.0000  0.0000  0.0000
    11DUM    Ar 6800   4.025   3.575   3.175  0.0000  0.0000  0.0000
    11DUM    Ar 6801  -0.175   3.725   3.025  0.0000  0.0000  0.0000
    11DUM    Ar 6802  -0.025   3.875   3.025  0.0000  0.0000  0.0000
    11DUM    Ar 6803  -0.025   3.725   3.175  0.0000  0.0000  0.0000
    11DUM    Ar 6804  -0.175   3.875   3.175  0.0000  0.0000  0.0000
    11DUM    Ar 6805   0.125   3.725   3.025  0.0000  0.0000  0.0000
    11DUM    Ar 6806   0.275   3.875   3.025  0.0000  0.0000  0.0000
    11DUM    Ar 6807   0.275   3.725   3.175  0.0000  0.0000  0.0000
    11DUM    Ar 6808   0.125   3.875   3.175  0.0000  0.0000  0.0000
    11DUM    Ar 6809   0.425   3.725   3.025  0.0000  0.0000  0.0000
    11DUM    Ar 6810   0.575   3.875   3.025  0.0000  0.0000  0.0000
    11DUM    Ar 6811   0.575   3.725   3.175  0.0000  0.0000  0.0000
    11DUM    Ar 6812   0.425   3.875   3.175  0.0000  0.0000  0.0000
    11DUM    Ar 6813   0.725   3.725   3.025  0.0000  0.0000  0.0000
    11DUM    Ar 6814   0.875   3.875   3.025  0.0000  0.0000  0.0000
    11DUM    Ar 6815   0.875   3.725   3.175  0.0000  0.0000  0.0000
    11DUM    Ar 6816   0.725   3.875   3.175  0.0000  0.0000  0.0000
    11DUM    Ar 6817   1.025   3.725   3.025  0.0000  0.0000  0.0000
    11DUM    Ar 6818   1.175   3.875   3.025  0.0000  0.0000  0.0000
    11DUM    Ar 6819   1.175   3.725   3.175  0.0000  0.0000  0.0000
    11DUM    Ar 6820   1.025   3.875   3.175  0.0000  0.0000  0.0000
    11DUM    Ar 6821   1.325   3.725   3.025  0.0000  0.0000  0.0000
    11DUM    Ar 6822   1.475   3.875   3.025  0.0000  0.0000  0.0000
    11DUM    Ar 6823   1.475   3.725   3.175  0.0000  0.0000  0.0000
    11DUM    Ar 6824   1.325   3.875   3.175  0.0000  0.0000  0.0000
    11DUM    Ar 6825   1.625   3.725   3.025  0.0000  0.0000  0.0000
    11DUM    Ar 6826   1.775   3.875   3.025  0.0000  0.0000  0.0000
    11DUM    Ar 6827   1.775   3.725   3.175  0.0000  0.0000  0.0000
    11DUM    Ar 6828   1.625   3.875   3.175  0.0000  0.0000  0.0000
    11DUM    Ar 6829   1.925   3.725   3.025  0.0000  0.0000  0.0000
    11DUM    Ar 6830   2.075   3.875   3.025  0.0000  0.0000  0.0000
    11DUM    Ar 6831   2.075   3.725   3.175  0.0000  0.0000  0.0000
    11DUM    Ar 6832   1.925   3.875   3.175  0.0000  0.0000  0.0000
    11DUM    Ar 6833   2.225   3.725   3.025  0.0000  0.0000  0.0000
    11DUM    Ar 6834   2.375   3.875   3.025  0.0000  0.0000  0.0000
    11DUM    Ar 6835   2.375   3.725   3.175  0.0000  0.0000  0.0000
    11DUM    Ar 6836   2.225   3.875   3.175  0.0000  0.0000  0.0000
    11DUM    Ar 6837   2.525   3.725   3.025  0.0000  0.0000  0.0000
    11DUM    Ar 6838   2.675   3.875   3.025  0.0000  0.0000  0.0000
    11DUM    Ar 6839   2.675   3.725   3.175  0.0000  0.0000  0.0000
    11DUM    Ar 6840   2.525   3.875   3.175  0.0000  0.0000  0.0000
    11DUM    Ar 6841   2.825   3.725   3.025  0.0000  0.0000  0.0000
    11DUM    Ar 6842   2.975   3.875   3.025  0.0000  0.0000  0.0000
    11DUM    Ar 6843   2.975   3.725   3.175  0.0000  0.0000  0.0000
    11DUM    Ar 6844   2.825   3.875   3.175  0.0000  0.0000  0.0000
    11DUM    Ar 6845   3.125   3.725   3.025  0.0000  0.0000  0.0000
    11DUM    Ar 6846   3.275   3.875   3.025  0.0000  0.0000  0.0000
    11DUM    Ar 6847   3.275   3.725   3.175  0.0000  0.0000  0.0000
    11DUM    Ar 6848   3.125   3.875   3.175  0.0000  0.0000  0.0000
    11DUM    Ar 6849   3.425   3.725   3.025  0.0000  0.0000  0.0000
    11DUM    Ar 6850   3.575   3.875   3.025  0.0000  0.0000  0.0000
    11DUM    Ar 6851   3.575   3.725   3.175  0.0000  0.0000  0.0000
    11DUM    Ar 6852   3.425   3.875   3.175  0.0000  0.0000  0.0000
    11DUM    Ar 6853   3.725   3.725   3.025  0.0000  0.0000  0.0000
    11DUM    Ar 6854   3.875   3.875   3.025  0.0000  0.0000  0.0000
    11DUM    Ar 6855   3.875   3.725   3.175  0.0000  0.0000  0.0000
    11DUM    Ar 6856   3.725   3.875   3.175  0.0000  0.0000  0.0000
    11DUM    Ar 6857   4.025   3.725   3.025  0.0000  0.0000  0.0000
    11DUM    Ar 6858   4.175   3.875   3.025  0.0000  0.0000  0.0000
    11DUM    Ar 6859   4.175   3.725   3.175  0.0000  0.0000  0.0000
    11DUM    Ar 6860   4.025   3.875   3.175  0.0000  0.0000  0.0000
    11DUM    Ar 6861  -0.175   4.025   3.025  0.0000  0.0000  0.0000
    11DUM    Ar 6862  -0.025   4.175   3.025  0.0000  0.0000  0.0000
    11DUM    Ar 6863  -0.025   4.025   3.175  0.0000  0.0000  0.0000
    11DUM    Ar 6864  -0.175   4.175   3.175  0.0000  0.0000  0.0000
    11DUM    Ar 6865   0.125   4.025   3.025  0.0000  0.0000  0.0000
    11DUM    Ar 6866   0.275   4.175   3.025  0.0000  0.0000  0.0000
    11DUM    Ar 6867   0.275   4.025   3.175  0.0000  0.0000  0.0000
    11DUM    Ar 6868   0.125   4.175   3.175  0.0000  0.0000  0.0000
    11DUM    Ar 6869   0.425   4.025   3.025  0.0000  0.0000  0.0000
    11DUM    Ar 6870   0.575   4.175   3.025  0.0000  0.0000  0.0000
    11DUM    Ar 6871   0.575   4.025   3.175  0.0000  0.0000  0.0000
    11DUM    Ar 6872   0.425   4.175   3.175  0.0000  0.0000  0.0000
    11DUM    Ar 6873   0.725   4.025   3.025  0.0000  0.0000  0.0000
    11DUM    Ar 6874   0.875   4.175   3.025  0.0000  0.0000  0.0000
    11DUM    Ar 6875   0.875   4.025   3.175  0.0000  0.0000  0.0000
    11DUM    Ar 6876   0.725   4.175   3.175  0.0000  0.0000  0.0000
    11DUM    Ar 6877   1.025   4.025   3.025  0.0000  0.0000  0.0000
    11DUM    Ar 6878   1.175   4.175   3.025  0.0000  0.0000  0.0000
    11DUM    Ar 6879   1.175   4.025   3.175  0.0000  0.0000  0.0000
    11DUM    Ar 6880   1.025   4.175   3.175  0.0000  0.0000  0.0000
    11DUM    Ar 6881   1.325   4.025   3.025  0.0000  0.0000  0.0000
    11DUM    Ar 6882   1.475   4.175   3.025  0.0000  0.0000  0.0000
    11DUM    Ar 6883   1.475   4.025   3.175  0.0000  0.0000  0.0000
    11DUM    Ar 6884   1.325   4.175   3.175  0.0000  0.0000  0.0000
    11DUM    Ar 6885   1.625   4.025   3.025  0.0000  0.0000  0.0000
    11DUM    Ar 6886   1.775   4.175   3.025  0.0000  0.0000  0.0000
    11DUM    Ar 6887   1.775   4.025   3.175  0.0000  0.0000  0.0000
    11DUM    Ar 6888   1.625   4.175   3.175  0.0000  0.0000  0.0000
    11DUM    Ar 6889   1.925   4.025   3.025  0.0000  0.0000  0.0000
    11DUM    Ar 6890   2.075   4.175   3.025  0.0000  0.0000  0.0000
    11DUM    Ar 6891   2.075   4.025   3.175  0.0000  0.0000  0.0000
    11DUM    Ar 6892   1.925   4.175   3.175  0.0000  0.0000  0.0000
    11DUM    Ar 6893   2.225   4.025   3.025  0.0000  0.0000  0.0000
    11DUM    Ar 6894   2.375   4.175   3.025  0.0000  0.0000  0.0000
    11DUM    Ar 6895   2.375   4.025   3.175  0.0000  0.0000  0.0000
    11DUM    Ar 6896   2.225   4.175   3.175  0.0000  0.0000  0.0000
    11DUM    Ar 6897   2.525   4.025   3.025  0.0000  0.0000  0.0000
    11DUM    Ar 6898   2.675   4.175   3.025  0.0000  0.0000  0.0000
    11DUM    Ar 6899   2.675   4.025   3.175  0.0000  0.0000  0.0000
    11DUM    Ar 6900   2.525   4.175   3.175  0.0000  0.0000  0.0000
    11DUM    Ar 6901   2.825   4.025   3.025  0.0000  0.0000  0.0000
    11DUM    Ar 6902   2.975   4.175   3.025  0.0000  0.0000  0.0000
    11DUM    Ar 6903   2.975   4.025   3.175  0.0000  0.0000  0.0000
    11DUM    Ar 6904   2.825   4.175   3.175  0.0000  0.0000  0.0000
    11DUM    Ar 6905   3.125   4.025   3.025  0.0000  0.0000  0.0000
    11DUM    Ar 6906   3.275   4.175   3.025  0.0000  0.0000  0.0000
    11DUM    Ar 6907   3.275   4.025   3.175  0.0000  0.0000  0.0000
    11DUM    Ar 6908   3.125   4.175   3.175  0.0000  0.0000  0.0000
    11DUM    Ar 6909   3.425   4.025   3.025  0.0000  0.0000  0.0000
    11DUM    Ar 6910   3.575   4.175   3.025  0.0000  0.0000  0.0000
    11DUM    Ar 6911   3.575   4.025   3.175  0.0000  0.0000  0.0000
    11DUM    Ar 6912   3.425   4.175   3.175  0.0000  0.0000  0.0000
    11DUM    Ar 6913   3.725   4.025   3.025  0.0000  0.0000  0.0000
    11DUM    Ar 6914   3.875   4.175   3.025  0.0000  0.0000  0.0000
    11DUM    Ar 6915   3.875   4.025   3.175  0.0000  0.0000  0.0000
    11DUM    Ar 6916   3.725   4.175   3.175  0.0000  0.0000  0.0000
    11DUM    Ar 6917   4.025   4.025   3.025  0.0000  0.0000  0.0000
    11DUM    Ar 6918   4.175   4.175   3.025  0.0000  0.0000  0.0000
    11DUM    Ar 6919   4.175   4.025   3.175  0.0000  0.0000  0.0000
    11DUM    Ar 6920   4.025   4.175   3.175  0.0000  0.0000  0.0000
    11DUM    Ar 6921  -0.175  -0.175   3.325  0.0000  0.0000  0.0000
    11DUM    Ar 6922  -0.025  -0.025   3.325  0.0000  0.0000  0.0000
    11DUM    Ar 6923  -0.025  -0.175   3.475  0.0000  0.0000  0.0000
    11DUM    Ar 6924  -0.175  -0.025   3.475  0.0000  0.0000  0.0000
    11DUM    Ar 6925   0.125  -0.175   3.325  0.0000  0.0000  0.0000
    11DUM    Ar 6926   0.275  -0.025   3.325  0.0000  0.0000  0.0000
    11DUM    Ar 6927   0.275  -0.175   3.475  0.0000  0.0000  0.0000
    11DUM    Ar 6928   0.125  -0.025   3.475  0.0000  0.0000  0.0000
    11DUM    Ar 6929   0.425  -0.175   3.325  0.0000  0.0000  0.0000
    11DUM    Ar 6930   0.575  -0.025   3.325  0.0000  0.0000  0.0000
    11DUM    Ar 6931   0.575  -0.175   3.475  0.0000  0.0000  0.0000
    11DUM    Ar 6932   0.425  -0.025   3.475  0.0000  0.0000  0.0000
    11DUM    Ar 6933   0.725  -0.175   3.325  0.0000  0.0000  0.0000
    11DUM    Ar 6934   0.875  -0.025   3.325  0.0000  0.0000  0.0000
    11DUM    Ar 6935   0.875  -0.175   3.475  0.0000  0.0000  0.0000
    11DUM    Ar 6936   0.725  -0.025   3.475  0.0000  0.0000  0.0000
    11DUM    Ar 6937   1.025  -0.175   3.325  0.0000  0.0000  0.0000
    11DUM    Ar 6938   1.175  -0.025   3.325  0.0000  0.0000  0.0000
    11DUM    Ar 6939   1.175  -0.175   3.475  0.0000  0.0000  0.0000
    11DUM    Ar 6940   1.025  -0.025   3.475  0.0000  0.0000  0.0000
    11DUM    Ar 6941   1.325  -0.175   3.325  0.0000  0.0000  0.0000
    11DUM    Ar 6942   1.475  -0.025   3.325  0.0000  0.0000  0.0000
    11DUM    Ar 6943   1.475  -0.175   3.475  0.0000  0.0000  0.0000
    11DUM    Ar 6944   1.325  -0.025   3.475  0.0000  0.0000  0.0000
    11DUM    Ar 6945   1.625  -0.175   3.325  0.0000  0.0000  0.0000
    11DUM    Ar 6946   1.775  -0.025   3.325  0.0000  0.0000  0.0000
    11DUM    Ar 6947   1.775  -0.175   3.475  0.0000  0.0000  0.0000
    11DUM    Ar 6948   1.625  -0.025   3.475  0.0000  0.0000  0.0000
    11DUM    Ar 6949   1.925  -0.175   3.325  0.0000  0.0000  0.0000
    11DUM    Ar 6950   2.075  -0.025   3.325  0.0000  0.0000  0.0000
    11DUM    Ar 6951   2.075  -0.175   3.475  0.0000  0.0000  0.0000
    11DUM    Ar 6952   1.925  -0.025   3.475  0.0000  0.0000  0.0000
    11DUM    Ar 6953   2.225  -0.175   3.325  0.0000  0.0000  0.0000
    11DUM    Ar 6954   2.375  -0.025   3.325  0.0000  0.0000  0.0000
    11DUM    Ar 6955   2.375  -0.175   3.475  0.0000  0.0000  0.0000
    11DUM    Ar 6956   2.225  -0.025   3.475  0.0000  0.0000  0.0000
    11DUM    Ar 6957   2.525  -0.175   3.325  0.0000  0.0000  0.0000
    11DUM    Ar 6958   2.675  -0.025   3.325  0.0000  0.0000  0.0000
    11DUM    Ar 6959   2.675  -0.175   3.475  0.0000  0.0000  0.0000
    11DUM    Ar 6960   2.525  -0.025   3.475  0.0000  0.0000  0.0000
    11DUM    Ar 6961   2.825  -0.175   3.325  0.0000  0.0000  0.0000
    11DUM    Ar 6962   2.975  -0.025   3.325  0.0000  0.0000  0.0000
    11DUM    Ar 6963   2.975  -0.175   3.475  0.0000  0.0000  0.0000
    11DUM    Ar 6964   2.825  -0.025   3.475  0.0000  0.0000  0.0000
    11DUM    Ar 6965   3.125  -0.175   3.325  0.0000  0.0000  0.0000
    11DUM    Ar 6966   3.275  -0.025   3.325  0.0000  0.0000  0.0000
    11DUM    Ar 6967   3.275  -0.175   3.475  0.0000  0.0000  0.0000
    11DUM    Ar 6968   3.125  -0.025   3.475  0.0000  0.0000  0.0000
    11DUM    Ar 6969   3.425  -0.175   3.325  0.0000  0.0000  0.0000
    11DUM    Ar 6970   3.575  -0.025   3.325  0.0000  0.0000  0.0000
    11DUM    Ar 6971   3.575  -0.175   3.475  0.0000  0.0000  0.0000
    11DUM    Ar 6972   3.425  -0.025   3.475  0.0000  0.0000  0.0000
    11DUM    Ar 6973   3.725  -0.175   3.325  0.0000  0.0000  0.0000
    11DUM    Ar 6974   3.875  -0.025   3.325  0.0000  0.0000  0.0000
    11DUM    Ar 6975   3.875  -0.175   3.475  0.0000  0.0000  0.0000
    11DUM    Ar 6976   3.725  -0.025   3.475  0.0000  0.0000  0.0000
    11DUM    Ar 6977   4.025  -0.175   3.325  0.0000  0.0000  0.0000
    11DUM    Ar 6978   4.175  -0.025   3.325  0.0000  0.0000  0.0000
    11DUM    Ar 6979   4.175  -0.175   3.475  0.0000  0.0000  0.0000
    11DUM    Ar 6980   4.025  -0.025   3.475  0.0000  0.0000  0.0000
    11DUM    Ar 6981  -0.175   0.125   3.325  0.0000  0.0000  0.0000
    11DUM    Ar 6982  -0.025   0.275   3.325  0.0000  0.0000  0.0000
    11DUM    Ar 6983  -0.025   0.125   3.475  0.0000  0.0000  0.0000
    11DUM    Ar 6984  -0.175   0.275   3.475  0.0000  0.0000  0.0000
    11DUM    Ar 6985   0.125   0.125   3.325  0.0000  0.0000  0.0000
    11DUM    Ar 6986   0.275   0.275   3.325  0.0000  0.0000  0.0000
    11DUM    Ar 6987   0.275   0.125   3.475  0.0000  0.0000  0.0000
    11DUM    Ar 6988   0.125   0.275   3.475  0.0000  0.0000  0.0000
    11DUM    Ar 6989   0.425   0.125   3.325  0.0000  0.0000  0.0000
    11DUM    Ar 6990   0.575   0.275   3.325  0.0000  0.0000  0.0000
    11DUM    Ar 6991   0.575   0.125   3.475  0.0000  0.0000  0.0000
    11DUM    Ar 6992   0.425   0.275   3.475  0.0000  0.0000  0.0000
    11DUM    Ar 6993   0.725   0.125   3.325  0.0000  0.0000  0.0000
    11DUM    Ar 6994   0.875   0.275   3.325  0.0000  0.0000  0.0000
    11DUM    Ar 6995   0.875   0.125   3.475  0.0000  0.0000  0.0000
    11DUM    Ar 6996   0.725   0.275   3.475  0.0000  0.0000  0.0000
    11DUM    Ar 6997   1.025   0.125   3.325  0.0000  0.0000  0.0000
    11DUM    Ar 6998   1.175   0.275   3.325  0.0000  0.0000  0.0000
    11DUM    Ar 6999   1.175   0.125   3.475  0.0000  0.0000  0.0000
    11DUM    Ar 7000   1.025   0.275   3.475  0.0000  0.0000  0.0000
    11DUM    Ar 7001   1.325   0.125   3.325  0.0000  0.0000  0.0000
    11DUM    Ar 7002   1.475   0.275   3.325  0.0000  0.0000  0.0000
    11DUM    Ar 7003   1.475   0.125   3.475  0.0000  0.0000  0.0000
    11DUM    Ar 7004   1.325   0.275   3.475  0.0000  0.0000  0.0000
    11DUM    Ar 7005   1.625   0.125   3.325  0.0000  0.0000  0.0000
    11DUM    Ar 7006   1.775   0.275   3.325  0.0000  0.0000  0.0000
    11DUM    Ar 7007   1.775   0.125   3.475  0.0000  0.0000  0.0000
    11DUM    Ar 7008   1.625   0.275   3.475  0.0000  0.0000  0.0000
    11DUM    Ar 7009   1.925   0.125   3.325  0.0000  0.0000  0.0000
    11DUM    Ar 7010   2.075   0.275   3.325  0.0000  0.0000  0.0000
    11DUM    Ar 7011   2.075   0.125   3.475  0.0000  0.0000  0.0000
    11DUM    Ar 7012   1.925   0.275   3.475  0.0000  0.0000  0.0000
    11DUM    Ar 7013   2.225   0.125   3.325  0.0000  0.0000  0.0000
    11DUM    Ar 7014   2.375   0.275   3.325  0.0000  0.0000  0.0000
    11DUM    Ar 7015   2.375   0.125   3.475  0.0000  0.0000  0.0000
    11DUM    Ar 7016   2.225   0.275   3.475  0.0000  0.0000  0.0000
    11DUM    Ar 7017   2.525   0.125   3.325  0.0000  0.0000  0.0000
    11DUM    Ar 7018   2.675   0.275   3.325  0.0000  0.0000  0.0000
    11DUM    Ar 7019   2.675   0.125   3.475  0.0000  0.0000  0.0000
    11DUM    Ar 7020   2.525   0.275   3.475  0.0000  0.0000  0.0000
    11DUM    Ar 7021   2.825   0.125   3.325  0.0000  0.0000  0.0000
    11DUM    Ar 7022   2.975   0.275   3.325  0.0000  0.0000  0.0000
    11DUM    Ar 7023   2.975   0.125   3.475  0.0000  0.0000  0.0000
    11DUM    Ar 7024   2.825   0.275   3.475  0.0000  0.0000  0.0000
    11DUM    Ar 7025   3.125   0.125   3.325  0.0000  0.0000  0.0000
    11DUM    Ar 7026   3.275   0.275   3.325  0.0000  0.0000  0.0000
    11DUM    Ar 7027   3.275   0.125   3.475  0.0000  0.0000  0.0000
    11DUM    Ar 7028   3.125   0.275   3.475  0.0000  0.0000  0.0000
    11DUM    Ar 7029   3.425   0.125   3.325  0.0000  0.0000  0.0000
    11DUM    Ar 7030   3.575   0.275   3.325  0.0000  0.0000  0.0000
    11DUM    Ar 7031   3.575   0.125   3.475  0.0000  0.0000  0.0000
    11DUM    Ar 7032   3.425   0.275   3.475  0.0000  0.0000  0.0000
    11DUM    Ar 7033   3.725   0.125   3.325  0.0000  0.0000  0.0000
    11DUM    Ar 7034   3.875   0.275   3.325  0.0000  0.0000  0.0000
    11DUM    Ar 7035   3.875   0.125   3.475  0.0000  0.0000  0.0000
    11DUM    Ar 7036   3.725   0.275   3.475  0.0000  0.0000  0.0000
    11DUM    Ar 7037   4.025   0.125   3.325  0.0000  0.0000  0.0000
    11DUM    Ar 7038   4.175   0.275   3.325  0.0000  0.0000  0.0000
    11DUM    Ar 7039   4.175   0.125   3.475  0.0000  0.0000  0.0000
    11DUM    Ar 7040   4.025   0.275   3.475  0.0000  0.0000  0.0000
    11DUM    Ar 7041  -0.175   0.425   3.325  0.0000  0.0000  0.0000
    11DUM    Ar 7042  -0.025   0.575   3.325  0.0000  0.0000  0.0000
    11DUM    Ar 7043  -0.025   0.425   3.475  0.0000  0.0000  0.0000
    11DUM    Ar 7044  -0.175   0.575   3.475  0.0000  0.0000  0.0000
    11DUM    Ar 7045   0.125   0.425   3.325  0.0000  0.0000  0.0000
    11DUM    Ar 7046   0.275   0.575   3.325  0.0000  0.0000  0.0000
    11DUM    Ar 7047   0.275   0.425   3.475  0.0000  0.0000  0.0000
    11DUM    Ar 7048   0.125   0.575   3.475  0.0000  0.0000  0.0000
    11DUM    Ar 7049   0.425   0.425   3.325  0.0000  0.0000  0.0000
    11DUM    Ar 7050   0.575   0.425   3.475  0.0000  0.0000  0.0000
    11DUM    Ar 7051   0.425   0.575   3.475  0.0000  0.0000  0.0000
    11DUM    Ar 7052   0.725   0.425   3.325  0.0000  0.0000  0.0000
    11DUM    Ar 7053   1.325   0.425   3.325  0.0000  0.0000  0.0000
    11DUM    Ar 7054   1.475   0.575   3.325  0.0000  0.0000  0.0000
    11DUM    Ar 7055   1.475   0.425   3.475  0.0000  0.0000  0.0000
    11DUM    Ar 7056   1.625   0.425   3.325  0.0000  0.0000  0.0000
    11DUM    Ar 7057   1.775   0.575   3.325  0.0000  0.0000  0.0000
    11DUM    Ar 7058   1.775   0.425   3.475  0.0000  0.0000  0.0000
    11DUM    Ar 7059   1.625   0.575   3.475  0.0000  0.0000  0.0000
    11DUM    Ar 7060   1.925   0.425   3.325  0.0000  0.0000  0.0000
    11DUM    Ar 7061   2.075   0.575   3.325  0.0000  0.0000  0.0000
    11DUM    Ar 7062   2.075   0.425   3.475  0.0000  0.0000  0.0000
    11DUM    Ar 7063   1.925   0.575   3.475  0.0000  0.0000  0.0000
    11DUM    Ar 7064   2.225   0.425   3.325  0.0000  0.0000  0.0000
    11DUM    Ar 7065   2.375   0.575   3.325  0.0000  0.0000  0.0000
    11DUM    Ar 7066   2.375   0.425   3.475  0.0000  0.0000  0.0000
    11DUM    Ar 7067   2.225   0.575   3.475  0.0000  0.0000  0.0000
    11DUM    Ar 7068   2.525   0.425   3.325  0.0000  0.0000  0.0000
    11DUM    Ar 7069   2.675   0.425   3.475  0.0000  0.0000  0.0000
    11DUM    Ar 7070   2.525   0.575   3.475  0.0000  0.0000  0.0000
    11DUM    Ar 7071   3.275   0.425   3.475  0.0000  0.0000  0.0000
    11DUM    Ar 7072   3.425   0.425   3.325  0.0000  0.0000  0.0000
    11DUM    Ar 7073   3.575   0.575   3.325  0.0000  0.0000  0.0000
    11DUM    Ar 7074   3.575   0.425   3.475  0.0000  0.0000  0.0000
    11DUM    Ar 7075   3.725   0.425   3.325  0.0000  0.0000  0.0000
    11DUM    Ar 7076   3.875   0.575   3.325  0.0000  0.0000  0.0000
    11DUM    Ar 7077   3.875   0.425   3.475  0.0000  0.0000  0.0000
    11DUM    Ar 7078   3.725   0.575   3.475  0.0000  0.0000  0.0000
    11DUM    Ar 7079   4.025   0.425   3.325  0.0000  0.0000  0.0000
    11DUM    Ar 7080   4.175   0.575   3.325  0.0000  0.0000  0.0000
    11DUM    Ar 7081   4.175   0.425   3.475  0.0000  0.0000  0.0000
    11DUM    Ar 7082   4.025   0.575   3.475  0.0000  0.0000  0.0000
    11DUM    Ar 7083  -0.175   0.725   3.325  0.0000  0.0000  0.0000
    11DUM    Ar 7084  -0.025   0.875   3.325  0.0000  0.0000  0.0000
    11DUM    Ar 7085  -0.025   0.725   3.475  0.0000  0.0000  0.0000
    11DUM    Ar 7086  -0.175   0.875   3.475  0.0000  0.0000  0.0000
    11DUM    Ar 7087   0.125   0.725   3.325  0.0000  0.0000  0.0000
    11DUM    Ar 7088   0.275   0.875   3.325  0.0000  0.0000  0.0000
    11DUM    Ar 7089   0.275   0.725   3.475  0.0000  0.0000  0.0000
    11DUM    Ar 7090   0.125   0.875   3.475  0.0000  0.0000  0.0000
    11DUM    Ar 7091   0.425   0.725   3.325  0.0000  0.0000  0.0000
    11DUM    Ar 7092   1.625   0.725   3.325  0.0000  0.0000  0.0000
    11DUM    Ar 7093   1.775   0.875   3.325  0.0000  0.0000  0.0000
    11DUM    Ar 7094   1.775   0.725   3.475  0.0000  0.0000  0.0000
    11DUM    Ar 7095   1.625   0.875   3.475  0.0000  0.0000  0.0000
    11DUM    Ar 7096   1.925   0.725   3.325  0.0000  0.0000  0.0000
    11DUM    Ar 7097   2.075   0.875   3.325  0.0000  0.0000  0.0000
    11DUM    Ar 7098   2.075   0.725   3.475  0.0000  0.0000  0.0000
    11DUM    Ar 7099   1.925   0.875   3.475  0.0000  0.0000  0.0000
    11DUM    Ar 7100   2.225   0.725   3.325  0.0000  0.0000  0.0000
    11DUM    Ar 7101   2.375   0.875   3.325  0.0000  0.0000  0.0000
    11DUM    Ar 7102   2.375   0.725   3.475  0.0000  0.0000  0.0000
    11DUM    Ar 7103   2.225   0.875   3.475  0.0000  0.0000  0.0000
    11DUM    Ar 7104   3.575   0.725   3.475  0.0000  0.0000  0.0000
    11DUM    Ar 7105   3.725   0.725   3.325  0.0000  0.0000  0.0000
    11DUM    Ar 7106   3.875   0.875   3.325  0.0000  0.0000  0.0000
    11DUM    Ar 7107   3.875   0.725   3.475  0.0000  0.0000  0.0000
    11DUM    Ar 7108   3.725   0.875   3.475  0.0000  0.0000  0.0000
    11DUM    Ar 7109   4.025   0.725   3.325  0.0000  0.0000  0.0000
    11DUM    Ar 7110   4.175   0.875   3.325  0.0000  0.0000  0.0000
    11DUM    Ar 7111   4.175   0.725   3.475  0.0000  0.0000  0.0000
    11DUM    Ar 7112   4.025   0.875   3.475  0.0000  0.0000  0.0000
    11DUM    Ar 7113  -0.175   1.025   3.325  0.0000  0.0000  0.0000
    11DUM    Ar 7114  -0.025   1.175   3.325  0.0000  0.0000  0.0000
    11DUM    Ar 7115  -0.025   1.025   3.475  0.0000  0.0000  0.0000
    11DUM    Ar 7116  -0.175   1.175   3.475  0.0000  0.0000  0.0000
    11DUM    Ar 7117   0.125   1.025   3.325  0.0000  0.0000  0.0000
    11DUM    Ar 7118   0.275   1.175   3.325  0.0000  0.0000  0.0000
    11DUM    Ar 7119   0.275   1.025   3.475  0.0000  0.0000  0.0000
    11DUM    Ar 7120   0.125   1.175   3.475  0.0000  0.0000  0.0000
    11DUM    Ar 7121   1.625   1.025   3.325  0.0000  0.0000  0.0000
    11DUM    Ar 7122   1.775   1.175   3.325  0.0000  0.0000  0.0000
    11DUM    Ar 7123   1.775   1.025   3.475  0.0000  0.0000  0.0000
    11DUM    Ar 7124   1.625   1.175   3.475  0.0000  0.0000  0.0000
    11DUM    Ar 7125   1.925   1.025   3.325  0.0000  0.0000  0.0000
    11DUM    Ar 7126   2.075   1.175   3.325  0.0000  0.0000  0.0000
    11DUM    Ar 7127   2.075   1.025   3.475  0.0000  0.0000  0.0000
    11DUM    Ar 7128   1.925   1.175   3.475  0.0000  0.0000  0.0000
    11DUM    Ar 7129   2.225   1.025   3.325  0.0000  0.0000  0.0000
    11DUM    Ar 7130   2.375   1.175   3.325  0.0000  0.0000  0.0000
    11DUM    Ar 7131   2.375   1.025   3.475  0.0000  0.0000  0.0000
    11DUM    Ar 7132   2.225   1.175   3.475  0.0000  0.0000  0.0000
    11DUM    Ar 7133   3.725   1.025   3.325  0.0000  0.0000  0.0000
    11DUM    Ar 7134   3.875   1.175   3.325  0.0000  0.0000  0.0000
    11DUM    Ar 7135   3.875   1.025   3.475  0.0000  0.0000  0.0000
    11DUM    Ar 7136   3.725   1.175   3.475  0.0000  0.0000  0.0000
    11DUM    Ar 7137   4.025   1.025   3.325  0.0000  0.0000  0.0000
    11DUM    Ar 7138   4.175   1.175   3.325  0.0000  0.0000  0.0000
    11DUM    Ar 7139   4.175   1.025   3.475  0.0000  0.0000  0.0000
    11DUM    Ar 7140   4.025   1.175   3.475  0.0000  0.0000  0.0000
    11DUM    Ar 7141  -0.175   1.325   3.325  0.0000  0.0000  0.0000
    11DUM    Ar 7142  -0.025   1.475   3.325  0.0000  0.0000  0.0000
    11DUM    Ar 7143  -0.025   1.325   3.475  0.0000  0.0000  0.0000
    11DUM    Ar 7144  -0.175   1.475   3.475  0.0000  0.0000  0.0000
    11DUM    Ar 7145   0.125   1.325   3.325  0.0000  0.0000  0.0000
    11DUM    Ar 7146   0.275   1.475   3.325  0.0000  0.0000  0.0000
    11DUM    Ar 7147   0.275   1.325   3.475  0.0000  0.0000  0.0000
    11DUM    Ar 7148   0.125   1.475   3.475  0.0000  0.0000  0.0000
    11DUM    Ar 7149   0.425   1.325   3.325  0.0000  0.0000  0.0000
    11DUM    Ar 7150   0.575   1.475   3.325  0.0000  0.0000  0.0000
    11DUM    Ar 7151   0.425   1.475   3.475  0.0000  0.0000  0.0000
    11DUM    Ar 7152   1.475   1.475   3.325  0.0000  0.0000  0.0000
    11DUM    Ar 7153   1.625   1.325   3.325  0.0000  0.0000  0.0000
    11DUM    Ar 7154   1.775   1.475   3.325  0.0000  0.0000  0.0000
    11DUM    Ar 7155   1.775   1.325   3.475  0.0000  0.0000  0.0000
    11DUM    Ar 7156   1.625   1.475   3.475  0.0000  0.0000  0.0000
    11DUM    Ar 7157   1.925   1.325   3.325  0.0000  0.0000  0.0000
    11DUM    Ar 7158   2.075   1.475   3.325  0.0000  0.0000  0.0000
    11DUM    Ar 7159   2.075   1.325   3.475  0.0000  0.0000  0.0000
    11DUM    Ar 7160   1.925   1.475   3.475  0.0000  0.0000  0.0000
    11DUM    Ar 7161   2.225   1.325   3.325  0.0000  0.0000  0.0000
    11DUM    Ar 7162   2.375   1.475   3.325  0.0000  0.0000  0.0000
    11DUM    Ar 7163   2.375   1.325   3.475  0.0000  0.0000  0.0000
    11DUM    Ar 7164   2.225   1.475   3.475  0.0000  0.0000  0.0000
    11DUM    Ar 7165   2.525   1.475   3.475  0.0000  0.0000  0.0000
    11DUM    Ar 7166   3.575   1.475   3.325  0.0000  0.0000  0.0000
    11DUM    Ar 7167   3.575   1.325   3.475  0.0000  0.0000  0.0000
    11DUM    Ar 7168   3.425   1.475   3.475  0.0000  0.0000  0.0000
    11DUM    Ar 7169   3.725   1.325   3.325  0.0000  0.0000  0.0000
    11DUM    Ar 7170   3.875   1.475   3.325  0.0000  0.0000  0.0000
    11DUM    Ar 7171   3.875   1.325   3.475  0.0000  0.0000  0.0000
    11DUM    Ar 7172   3.725   1.475   3.475  0.0000  0.0000  0.0000
    11DUM    Ar 7173   4.025   1.325   3.325  0.0000  0.0000  0.0000
    11DUM    Ar 7174   4.175   1.475   3.325  0.0000  0.0000  0.0000
    11DUM    Ar 7175   4.175   1.325   3.475  0.0000  0.0000  0.0000
    11DUM    Ar 7176   4.025   1.475   3.475  0.0000  0.0000  0.0000
    11DUM    Ar 7177  -0.175   1.625   3.325  0.0000  0.0000  0.0000
    11DUM    Ar 7178  -0.025   1.775   3.325  0.0000  0.0000  0.0000
    11DUM    Ar 7179  -0.025   1.625   3.475  0.0000  0.0000  0.0000
    11DUM    Ar 7180  -0.175   1.775   3.475  0.0000  0.0000  0.0000
    11DUM    Ar 7181   0.125   1.625   3.325  0.0000  0.0000  0.0000
    11DUM    Ar 7182   0.275   1.775   3.325  0.0000  0.0000  0.0000
    11DUM    Ar 7183   0.275   1.625   3.475  0.0000  0.0000  0.0000
    11DUM    Ar 7184   0.125   1.775   3.475  0.0000  0.0000  0.0000
    11DUM    Ar 7185   0.425   1.625   3.325  0.0000  0.0000  0.0000
    11DUM    Ar 7186   0.575   1.775   3.325  0.0000  0.0000  0.0000
    11DUM    Ar 7187   0.575   1.625   3.475  0.0000  0.0000  0.0000
    11DUM    Ar 7188   0.425   1.775   3.475  0.0000  0.0000  0.0000
    11DUM    Ar 7189   0.725   1.625   3.325  0.0000  0.0000  0.0000
    11DUM    Ar 7190   0.875   1.775   3.325  0.0000  0.0000  0.0000
    11DUM    Ar 7191   0.875   1.625   3.475  0.0000  0.0000  0.0000
    11DUM    Ar 7192   0.725   1.775   3.475  0.0000  0.0000  0.0000
    11DUM    Ar 7193   1.025   1.625   3.325  0.0000  0.0000  0.0000
    11DUM    Ar 7194   1.175   1.775   3.325  0.0000  0.0000  0.0000
    11DUM    Ar 7195   1.175   1.625   3.475  0.0000  0.0000  0.0000
    11DUM    Ar 7196   1.025   1.775   3.475  0.0000  0.0000  0.0000
    11DUM    Ar 7197   1.325   1.625   3.325  0.0000  0.0000  0.0000
    11DUM    Ar 7198   1.475   1.775   3.325  0.0000  0.0000  0.0000
    11DUM    Ar 7199   1.475   1.625   3.475  0.0000  0.0000  0.0000
    11DUM    Ar 7200   1.325   1.775   3.475  0.0000  0.0000  0.0000
    11DUM    Ar 7201   1.625   1.625   3.325  0.0000  0.0000  0.0000
    11DUM    Ar 7202   1.775   1.775   3.325  0.0000  0.0000  0.0000
    11DUM    Ar 7203   1.775   1.625   3.475  0.0000  0.0000  0.0000
    11DUM    Ar 7204   1.625   1.775   3.475  0.0000  0.0000  0.0000
    11DUM    Ar 7205   1.925   1.625   3.325  0.0000  0.0000  0.0000
    11DUM    Ar 7206   2.075   1.775   3.325  0.0000  0.0000  0.0000
    11DUM    Ar 7207   2.075   1.625   3.475  0.0000  0.0000  0.0000
    11DUM    Ar 7208   1.925   1.775   3.475  0.0000  0.0000  0.0000
    11DUM    Ar 7209   2.225   1.625   3.325  0.0000  0.0000  0.0000
    11DUM    Ar 7210   2.375   1.775   3.325  0.0000  0.0000  0.0000
    11DUM    Ar 7211   2.375   1.625   3.475  0.0000  0.0000  0.0000
    11DUM    Ar 7212   2.225   1.775   3.475  0.0000  0.0000  0.0000
    11DUM    Ar 7213   2.525   1.625   3.325  0.0000  0.0000  0.0000
    11DUM    Ar 7214   2.675   1.775   3.325  0.0000  0.0000  0.0000
    11DUM    Ar 7215   2.675   1.625   3.475  0.0000  0.0000  0.0000
    11DUM    Ar 7216   2.525   1.775   3.475  0.0000  0.0000  0.0000
    11DUM    Ar 7217   2.825   1.625   3.325  0.0000  0.0000  0.0000
    11DUM    Ar 7218   2.975   1.775   3.325  0.0000  0.0000  0.0000
    11DUM    Ar 7219   2.975   1.625   3.475  0.0000  0.0000  0.0000
    11DUM    Ar 7220   2.825   1.775   3.475  0.0000  0.0000  0.0000
    11DUM    Ar 7221   3.125   1.625   3.325  0.0000  0.0000  0.0000
    11DUM    Ar 7222   3.275   1.775   3.325  0.0000  0.0000  0.0000
    11DUM    Ar 7223   3.275   1.625   3.475  0.0000  0.0000  0.0000
    11DUM    Ar 7224   3.125   1.775   3.475  0.0000  0.0000  0.0000
    11DUM    Ar 7225   3.425   1.625   3.325  0.0000  0.0000  0.0000
    11DUM    Ar 7226   3.575   1.775   3.325  0.0000  0.0000  0.0000
    11DUM    Ar 7227   3.575   1.625   3.475  0.0000  0.0000  0.0000
    11DUM    Ar 7228   3.425   1.775   3.475  0.0000  0.0000  0.0000
    11DUM    Ar 7229   3.725   1.625   3.325  0.0000  0.0000  0.0000
    11DUM    Ar 7230   3.875   1.775   3.325  0.0000  0.0000  0.0000
    11DUM    Ar 7231   3.875   1.625   3.475  0.0000  0.0000  0.0000
    11DUM    Ar 7232   3.725   1.775   3.475  0.0000  0.0000  0.0000
    11DUM    Ar 7233   4.025   1.625   3.325  0.0000  0.0000  0.0000
    11DUM    Ar 7234   4.175   1.775   3.325  0.0000  0.0000  0.0000
    11DUM    Ar 7235   4.175   1.625   3.475  0.0000  0.0000  0.0000
    11DUM    Ar 7236   4.025   1.775   3.475  0.0000  0.0000  0.0000
    11DUM    Ar 7237  -0.175   1.925   3.325  0.0000  0.0000  0.0000
    11DUM    Ar 7238  -0.025   2.075   3.325  0.0000  0.0000  0.0000
    11DUM    Ar 7239  -0.025   1.925   3.475  0.0000  0.0000  0.0000
    11DUM    Ar 7240  -0.175   2.075   3.475  0.0000  0.0000  0.0000
    11DUM    Ar 7241   0.125   1.925   3.325  0.0000  0.0000  0.0000
    11DUM    Ar 7242   0.275   2.075   3.325  0.0000  0.0000  0.0000
    11DUM    Ar 7243   0.275   1.925   3.475  0.0000  0.0000  0.0000
    11DUM    Ar 7244   0.125   2.075   3.475  0.0000  0.0000  0.0000
    11DUM    Ar 7245   0.425   1.925   3.325  0.0000  0.0000  0.0000
    11DUM    Ar 7246   0.575   2.075   3.325  0.0000  0.0000  0.0000
    11DUM    Ar 7247   0.575   1.925   3.475  0.0000  0.0000  0.0000
    11DUM    Ar 7248   0.425   2.075   3.475  0.0000  0.0000  0.0000
    11DUM    Ar 7249   0.725   1.925   3.325  0.0000  0.0000  0.0000
    11DUM    Ar 7250   0.875   2.075   3.325  0.0000  0.0000  0.0000
    11DUM    Ar 7251   0.875   1.925   3.475  0.0000  0.0000  0.0000
    11DUM    Ar 7252   0.725   2.075   3.475  0.0000  0.0000  0.0000
    11DUM    Ar 7253   1.025   1.925   3.325  0.0000  0.0000  0.0000
    11DUM    Ar 7254   1.175   2.075   3.325  0.0000  0.0000  0.0000
    11DUM    Ar 7255   1.175   1.925   3.475  0.0000  0.0000  0.0000
    11DUM    Ar 7256   1.025   2.075   3.475  0.0000  0.0000  0.0000
    11DUM    Ar 7257   1.325   1.925   3.325  0.0000  0.0000  0.0000
    11DUM    Ar 7258   1.475   2.075   3.325  0.0000  0.0000  0.0000
    11DUM    Ar 7259   1.475   1.925   3.475  0.0000  0.0000  0.0000
    11DUM    Ar 7260   1.325   2.075   3.475  0.0000  0.0000  0.0000
    11DUM    Ar 7261   1.625   1.925   3.325  0.0000  0.0000  0.0000
    11DUM    Ar 7262   1.775   2.075   3.325  0.0000  0.0000  0.0000
    11DUM    Ar 7263   1.775   1.925   3.475  0.0000  0.0000  0.0000
    11DUM    Ar 7264   1.625   2.075   3.475  0.0000  0.0000  0.0000
    11DUM    Ar 7265   1.925   1.925   3.325  0.0000  0.0000  0.0000
    11DUM    Ar 7266   2.075   2.075   3.325  0.0000  0.0000  0.0000
    11DUM    Ar 7267   2.075   1.925   3.475  0.0000  0.0000  0.0000
    11DUM    Ar 7268   1.925   2.075   3.475  0.0000  0.0000  0.0000
    11DUM    Ar 7269   2.225   1.925   3.325  0.0000  0.0000  0.0000
    11DUM    Ar 7270   2.375   2.075   3.325  0.0000  0.0000  0.0000
    11DUM    Ar 7271   2.375   1.925   3.475  0.0000  0.0000  0.0000
    11DUM    Ar 7272   2.225   2.075   3.475  0.0000  0.0000  0.0000
    11DUM    Ar 7273   2.525   1.925   3.325  0.0000  0.0000  0.0000
    11DUM    Ar 7274   2.675   2.075   3.325  0.0000  0.0000  0.0000
    11DUM    Ar 7275   2.675   1.925   3.475  0.0000  0.0000  0.0000
    11DUM    Ar 7276   2.525   2.075   3.475  0.0000  0.0000  0.0000
    11DUM    Ar 7277   2.825   1.925   3.325  0.0000  0.0000  0.0000
    11DUM    Ar 7278   2.975   2.075   3.325  0.0000  0.0000  0.0000
    11DUM    Ar 7279   2.975   1.925   3.475  0.0000  0.0000  0.0000
    11DUM    Ar 7280   2.825   2.075   3.475  0.0000  0.0000  0.0000
    11DUM    Ar 7281   3.125   1.925   3.325  0.0000  0.0000  0.0000
    11DUM    Ar 7282   3.275   2.075   3.325  0.0000  0.0000  0.0000
    11DUM    Ar 7283   3.275   1.925   3.475  0.0000  0.0000  0.0000
    11DUM    Ar 7284   3.125   2.075   3.475  0.0000  0.0000  0.0000
    11DUM    Ar 7285   3.425   1.925   3.325  0.0000  0.0000  0.0000
    11DUM    Ar 7286   3.575   2.075   3.325  0.0000  0.0000  0.0000
    11DUM    Ar 7287   3.575   1.925   3.475  0.0000  0.0000  0.0000
    11DUM    Ar 7288   3.425   2.075   3.475  0.0000  0.0000  0.0000
    11DUM    Ar 7289   3.725   1.925   3.325  0.0000  0.0000  0.0000
    11DUM    Ar 7290   3.875   2.075   3.325  0.0000  0.0000  0.0000
    11DUM    Ar 7291   3.875   1.925   3.475  0.0000  0.0000  0.0000
    11DUM    Ar 7292   3.725   2.075   3.475  0.0000  0.0000  0.0000
    11DUM    Ar 7293   4.025   1.925   3.325  0.0000  0.0000  0.0000
    11DUM    Ar 7294   4.175   2.075   3.325  0.0000  0.0000  0.0000
    11DUM    Ar 7295   4.175   1.925   3.475  0.0000  0.0000  0.0000
    11DUM    Ar 7296   4.025   2.075   3.475  0.0000  0.0000  0.0000
    11DUM    Ar 7297  -0.175   2.225   3.325  0.0000  0.0000  0.0000
    11DUM    Ar 7298  -0.025   2.375   3.325  0.0000  0.0000  0.0000
    11DUM    Ar 7299  -0.025   2.225   3.475  0.0000  0.0000  0.0000
    11DUM    Ar 7300  -0.175   2.375   3.475  0.0000  0.0000  0.0000
    11DUM    Ar 7301   0.125   2.225   3.325  0.0000  0.0000  0.0000
    11DUM    Ar 7302   0.275   2.375   3.325  0.0000  0.0000  0.0000
    11DUM    Ar 7303   0.275   2.225   3.475  0.0000  0.0000  0.0000
    11DUM    Ar 7304   0.125   2.375   3.475  0.0000  0.0000  0.0000
    11DUM    Ar 7305   0.425   2.225   3.325  0.0000  0.0000  0.0000
    11DUM    Ar 7306   0.575   2.375   3.325  0.0000  0.0000  0.0000
    11DUM    Ar 7307   0.575   2.225   3.475  0.0000  0.0000  0.0000
    11DUM    Ar 7308   0.425   2.375   3.475  0.0000  0.0000  0.0000
    11DUM    Ar 7309   0.725   2.225   3.325  0.0000  0.0000  0.0000
    11DUM    Ar 7310   0.875   2.375   3.325  0.0000  0.0000  0.0000
    11DUM    Ar 7311   0.875   2.225   3.475  0.0000  0.0000  0.0000
    11DUM    Ar 7312   0.725   2.375   3.475  0.0000  0.0000  0.0000
    11DUM    Ar 7313   1.025   2.225   3.325  0.0000  0.0000  0.0000
    11DUM    Ar 7314   1.175   2.375   3.325  0.0000  0.0000  0.0000
    11DUM    Ar 7315   1.175   2.225   3.475  0.0000  0.0000  0.0000
    11DUM    Ar 7316   1.025   2.375   3.475  0.0000  0.0000  0.0000
    11DUM    Ar 7317   1.325   2.225   3.325  0.0000  0.0000  0.0000
    11DUM    Ar 7318   1.475   2.375   3.325  0.0000  0.0000  0.0000
    11DUM    Ar 7319   1.475   2.225   3.475  0.0000  0.0000  0.0000
    11DUM    Ar 7320   1.325   2.375   3.475  0.0000  0.0000  0.0000
    11DUM    Ar 7321   1.625   2.225   3.325  0.0000  0.0000  0.0000
    11DUM    Ar 7322   1.775   2.375   3.325  0.0000  0.0000  0.0000
    11DUM    Ar 7323   1.775   2.225   3.475  0.0000  0.0000  0.0000
    11DUM    Ar 7324   1.625   2.375   3.475  0.0000  0.0000  0.0000
    11DUM    Ar 7325   1.925   2.225   3.325  0.0000  0.0000  0.0000
    11DUM    Ar 7326   2.075   2.375   3.325  0.0000  0.0000  0.0000
    11DUM    Ar 7327   2.075   2.225   3.475  0.0000  0.0000  0.0000
    11DUM    Ar 7328   1.925   2.375   3.475  0.0000  0.0000  0.0000
    11DUM    Ar 7329   2.225   2.225   3.325  0.0000  0.0000  0.0000
    11DUM    Ar 7330   2.375   2.375   3.325  0.0000  0.0000  0.0000
    11DUM    Ar 7331   2.375   2.225   3.475  0.0000  0.0000  0.0000
    11DUM    Ar 7332   2.225   2.375   3.475  0.0000  0.0000  0.0000
    11DUM    Ar 7333   2.525   2.225   3.325  0.0000  0.0000  0.0000
    11DUM    Ar 7334   2.675   2.375   3.325  0.0000  0.0000  0.0000
    11DUM    Ar 7335   2.675   2.225   3.475  0.0000  0.0000  0.0000
    11DUM    Ar 7336   2.525   2.375   3.475  0.0000  0.0000  0.0000
    11DUM    Ar 7337   2.825   2.225   3.325  0.0000  0.0000  0.0000
    11DUM    Ar 7338   2.975   2.375   3.325  0.0000  0.0000  0.0000
    11DUM    Ar 7339   2.975   2.225   3.475  0.0000  0.0000  0.0000
    11DUM    Ar 7340   2.825   2.375   3.475  0.0000  0.0000  0.0000
    11DUM    Ar 7341   3.125   2.225   3.325  0.0000  0.0000  0.0000
    11DUM    Ar 7342   3.275   2.375   3.325  0.0000  0.0000  0.0000
    11DUM    Ar 7343   3.275   2.225   3.475  0.0000  0.0000  0.0000
    11DUM    Ar 7344   3.125   2.375   3.475  0.0000  0.0000  0.0000
    11DUM    Ar 7345   3.425   2.225   3.325  0.0000  0.0000  0.0000
    11DUM    Ar 7346   3.575   2.375   3.325  0.0000  0.0000  0.0000
    11DUM    Ar 7347   3.575   2.225   3.475  0.0000  0.0000  0.0000
    11DUM    Ar 7348   3.425   2.375   3.475  0.0000  0.0000  0.0000
    11DUM    Ar 7349   3.725   2.225   3.325  0.0000  0.0000  0.0000
    11DUM    Ar 7350   3.875   2.375   3.325  0.0000  0.0000  0.0000
    11DUM    Ar 7351   3.875   2.225   3.475  0.0000  0.0000  0.0000
    11DUM    Ar 7352   3.725   2.375   3.475  0.0000  0.0000  0.0000
    11DUM    Ar 7353   4.025   2.225   3.325  0.0000  0.0000  0.0000
    11DUM    Ar 7354   4.175   2.375   3.325  0.0000  0.0000  0.0000
    11DUM    Ar 7355   4.175   2.225   3.475  0.0000  0.0000  0.0000
    11DUM    Ar 7356   4.025   2.375   3.475  0.0000  0.0000  0.0000
    11DUM    Ar 7357  -0.175   2.525   3.325  0.0000  0.0000  0.0000
    11DUM    Ar 7358  -0.025   2.675   3.325  0.0000  0.0000  0.0000
    11DUM    Ar 7359  -0.025   2.525   3.475  0.0000  0.0000  0.0000
    11DUM    Ar 7360  -0.175   2.675   3.475  0.0000  0.0000  0.0000
    11DUM    Ar 7361   0.125   2.525   3.325  0.0000  0.0000  0.0000
    11DUM    Ar 7362   0.275   2.675   3.325  0.0000  0.0000  0.0000
    11DUM    Ar 7363   0.275   2.525   3.475  0.0000  0.0000  0.0000
    11DUM    Ar 7364   0.125   2.675   3.475  0.0000  0.0000  0.0000
    11DUM    Ar 7365   0.425   2.525   3.325  0.0000  0.0000  0.0000
    11DUM    Ar 7366   0.575   2.525   3.475  0.0000  0.0000  0.0000
    11DUM    Ar 7367   0.425   2.675   3.475  0.0000  0.0000  0.0000
    11DUM    Ar 7368   1.475   2.525   3.475  0.0000  0.0000  0.0000
    11DUM    Ar 7369   1.625   2.525   3.325  0.0000  0.0000  0.0000
    11DUM    Ar 7370   1.775   2.675   3.325  0.0000  0.0000  0.0000
    11DUM    Ar 7371   1.775   2.525   3.475  0.0000  0.0000  0.0000
    11DUM    Ar 7372   1.625   2.675   3.475  0.0000  0.0000  0.0000
    11DUM    Ar 7373   1.925   2.525   3.325  0.0000  0.0000  0.0000
    11DUM    Ar 7374   2.075   2.675   3.325  0.0000  0.0000  0.0000
    11DUM    Ar 7375   2.075   2.525   3.475  0.0000  0.0000  0.0000
    11DUM    Ar 7376   1.925   2.675   3.475  0.0000  0.0000  0.0000
    11DUM    Ar 7377   2.225   2.525   3.325  0.0000  0.0000  0.0000
    11DUM    Ar 7378   2.375   2.675   3.325  0.0000  0.0000  0.0000
    11DUM    Ar 7379   2.375   2.525   3.475  0.0000  0.0000  0.0000
    11DUM    Ar 7380   2.225   2.675   3.475  0.0000  0.0000  0.0000
    11DUM    Ar 7381   2.525   2.525   3.325  0.0000  0.0000  0.0000
    11DUM    Ar 7382   3.425   2.525   3.325  0.0000  0.0000  0.0000
    11DUM    Ar 7383   3.575   2.675   3.325  0.0000  0.0000  0.0000
    11DUM    Ar 7384   3.575   2.525   3.475  0.0000  0.0000  0.0000
    11DUM    Ar 7385   3.725   2.525   3.325  0.0000  0.0000  0.0000
    11DUM    Ar 7386   3.875   2.675   3.325  0.0000  0.0000  0.0000
    11DUM    Ar 7387   3.875   2.525   3.475  0.0000  0.0000  0.0000
    11DUM    Ar 7388   3.725   2.675   3.475  0.0000  0.0000  0.0000
    11DUM    Ar 7389   4.025   2.525   3.325  0.0000  0.0000  0.0000
    11DUM    Ar 7390   4.175   2.675   3.325  0.0000  0.0000  0.0000
    11DUM    Ar 7391   4.175   2.525   3.475  0.0000  0.0000  0.0000
    11DUM    Ar 7392   4.025   2.675   3.475  0.0000  0.0000  0.0000
    11DUM    Ar 7393  -0.175   2.825   3.325  0.0000  0.0000  0.0000
    11DUM    Ar 7394  -0.025   2.975   3.325  0.0000  0.0000  0.0000
    11DUM    Ar 7395  -0.025   2.825   3.475  0.0000  0.0000  0.0000
    11DUM    Ar 7396  -0.175   2.975   3.475  0.0000  0.0000  0.0000
    11DUM    Ar 7397   0.125   2.825   3.325  0.0000  0.0000  0.0000
    11DUM    Ar 7398   0.275   2.975   3.325  0.0000  0.0000  0.0000
    11DUM    Ar 7399   0.275   2.825   3.475  0.0000  0.0000  0.0000
    11DUM    Ar 7400   0.125   2.975   3.475  0.0000  0.0000  0.0000
    11DUM    Ar 7401   1.625   2.825   3.325  0.0000  0.0000  0.0000
    11DUM    Ar 7402   1.775   2.975   3.325  0.0000  0.0000  0.0000
    11DUM    Ar 7403   1.775   2.825   3.475  0.0000  0.0000  0.0000
    11DUM    Ar 7404   1.625   2.975   3.475  0.0000  0.0000  0.0000
    11DUM    Ar 7405   1.925   2.825   3.325  0.0000  0.0000  0.0000
    11DUM    Ar 7406   2.075   2.975   3.325  0.0000  0.0000  0.0000
    11DUM    Ar 7407   2.075   2.825   3.475  0.0000  0.0000  0.0000
    11DUM    Ar 7408   1.925   2.975   3.475  0.0000  0.0000  0.0000
    11DUM    Ar 7409   2.225   2.825   3.325  0.0000  0.0000  0.0000
    11DUM    Ar 7410   2.375   2.975   3.325  0.0000  0.0000  0.0000
    11DUM    Ar 7411   2.375   2.825   3.475  0.0000  0.0000  0.0000
    11DUM    Ar 7412   2.225   2.975   3.475  0.0000  0.0000  0.0000
    11DUM    Ar 7413   3.725   2.825   3.325  0.0000  0.0000  0.0000
    11DUM    Ar 7414   3.875   2.975   3.325  0.0000  0.0000  0.0000
    11DUM    Ar 7415   3.875   2.825   3.475  0.0000  0.0000  0.0000
    11DUM    Ar 7416   3.725   2.975   3.475  0.0000  0.0000  0.0000
    11DUM    Ar 7417   4.025   2.825   3.325  0.0000  0.0000  0.0000
    11DUM    Ar 7418   4.175   2.975   3.325  0.0000  0.0000  0.0000
    11DUM    Ar 7419   4.175   2.825   3.475  0.0000  0.0000  0.0000
    11DUM    Ar 7420   4.025   2.975   3.475  0.0000  0.0000  0.0000
    11DUM    Ar 7421  -0.175   3.125   3.325  0.0000  0.0000  0.0000
    11DUM    Ar 7422  -0.025   3.275   3.325  0.0000  0.0000  0.0000
    11DUM    Ar 7423  -0.025   3.125   3.475  0.0000  0.0000  0.0000
    11DUM    Ar 7424  -0.175   3.275   3.475  0.0000  0.0000  0.0000
    11DUM    Ar 7425   0.125   3.125   3.325  0.0000  0.0000  0.0000
    11DUM    Ar 7426   0.275   3.275   3.325  0.0000  0.0000  0.0000
    11DUM    Ar 7427   0.275   3.125   3.475  0.0000  0.0000  0.0000
    11DUM    Ar 7428   0.125   3.275   3.475  0.0000  0.0000  0.0000
    11DUM    Ar 7429   0.425   3.275   3.475  0.0000  0.0000  0.0000
    11DUM    Ar 7430   1.625   3.125   3.325  0.0000  0.0000  0.0000
    11DUM    Ar 7431   1.775   3.275   3.325  0.0000  0.0000  0.0000
    11DUM    Ar 7432   1.775   3.125   3.475  0.0000  0.0000  0.0000
    11DUM    Ar 7433   1.625   3.275   3.475  0.0000  0.0000  0.0000
    11DUM    Ar 7434   1.925   3.125   3.325  0.0000  0.0000  0.0000
    11DUM    Ar 7435   2.075   3.275   3.325  0.0000  0.0000  0.0000
    11DUM    Ar 7436   2.075   3.125   3.475  0.0000  0.0000  0.0000
    11DUM    Ar 7437   1.925   3.275   3.475  0.0000  0.0000  0.0000
    11DUM    Ar 7438   2.225   3.125   3.325  0.0000  0.0000  0.0000
    11DUM    Ar 7439   2.375   3.275   3.325  0.0000  0.0000  0.0000
    11DUM    Ar 7440   2.375   3.125   3.475  0.0000  0.0000  0.0000
    11DUM    Ar 7441   2.225   3.275   3.475  0.0000  0.0000  0.0000
    11DUM    Ar 7442   3.575   3.275   3.325  0.0000  0.0000  0.0000
    11DUM    Ar 7443   3.725   3.125   3.325  0.0000  0.0000  0.0000
    11DUM    Ar 7444   3.875   3.275   3.325  0.0000  0.0000  0.0000
    11DUM    Ar 7445   3.875   3.125   3.475  0.0000  0.0000  0.0000
    11DUM    Ar 7446   3.725   3.275   3.475  0.0000  0.0000  0.0000
    11DUM    Ar 7447   4.025   3.125   3.325  0.0000  0.0000  0.0000
    11DUM    Ar 7448   4.175   3.275   3.325  0.0000  0.0000  0.0000
    11DUM    Ar 7449   4.175   3.125   3.475  0.0000  0.0000  0.0000
    11DUM    Ar 7450   4.025   3.275   3.475  0.0000  0.0000  0.0000
    11DUM    Ar 7451  -0.175   3.425   3.325  0.0000  0.0000  0.0000
    11DUM    Ar 7452  -0.025   3.575   3.325  0.0000  0.0000  0.0000
    11DUM    Ar 7453  -0.025   3.425   3.475  0.0000  0.0000  0.0000
    11DUM    Ar 7454  -0.175   3.575   3.475  0.0000  0.0000  0.0000
    11DUM    Ar 7455   0.125   3.425   3.325  0.0000  0.0000  0.0000
    11DUM    Ar 7456   0.275   3.575   3.325  0.0000  0.0000  0.0000
    11DUM    Ar 7457   0.275   3.425   3.475  0.0000  0.0000  0.0000
    11DUM    Ar 7458   0.125   3.575   3.475  0.0000  0.0000  0.0000
    11DUM    Ar 7459   0.425   3.425   3.325  0.0000  0.0000  0.0000
    11DUM    Ar 7460   0.575   3.575   3.325  0.0000  0.0000  0.0000
    11DUM    Ar 7461   0.425   3.575   3.475  0.0000  0.0000  0.0000
    11DUM    Ar 7462   0.725   3.575   3.475  0.0000  0.0000  0.0000
    11DUM    Ar 7463   1.475   3.575   3.325  0.0000  0.0000  0.0000
    11DUM    Ar 7464   1.475   3.425   3.475  0.0000  0.0000  0.0000
    11DUM    Ar 7465   1.325   3.575   3.475  0.0000  0.0000  0.0000
    11DUM    Ar 7466   1.625   3.425   3.325  0.0000  0.0000  0.0000
    11DUM    Ar 7467   1.775   3.575   3.325  0.0000  0.0000  0.0000
    11DUM    Ar 7468   1.775   3.425   3.475  0.0000  0.0000  0.0000
    11DUM    Ar 7469   1.625   3.575   3.475  0.0000  0.0000  0.0000
    11DUM    Ar 7470   1.925   3.425   3.325  0.0000  0.0000  0.0000
    11DUM    Ar 7471   2.075   3.575   3.325  0.0000  0.0000  0.0000
    11DUM    Ar 7472   2.075   3.425   3.475  0.0000  0.0000  0.0000
    11DUM    Ar 7473   1.925   3.575   3.475  0.0000  0.0000  0.0000
    11DUM    Ar 7474   2.225   3.425   3.325  0.0000  0.0000  0.0000
    11DUM    Ar 7475   2.375   3.575   3.325  0.0000  0.0000  0.0000
    11DUM    Ar 7476   2.375   3.425   3.475  0.0000  0.0000  0.0000
    11DUM    Ar 7477   2.225   3.575   3.475  0.0000  0.0000  0.0000
    11DUM    Ar 7478   2.525   3.425   3.325  0.0000  0.0000  0.0000
    11DUM    Ar 7479   2.675   3.575   3.325  0.0000  0.0000  0.0000
    11DUM    Ar 7480   2.525   3.575   3.475  0.0000  0.0000  0.0000
    11DUM    Ar 7481   3.275   3.575   3.325  0.0000  0.0000  0.0000
    11DUM    Ar 7482   3.575   3.575   3.325  0.0000  0.0000  0.0000
    11DUM    Ar 7483   3.575   3.425   3.475  0.0000  0.0000  0.0000
    11DUM    Ar 7484   3.425   3.575   3.475  0.0000  0.0000  0.0000
    11DUM    Ar 7485   3.725   3.425   3.325  0.0000  0.0000  0.0000
    11DUM    Ar 7486   3.875   3.575   3.325  0.0000  0.0000  0.0000
    11DUM    Ar 7487   3.875   3.425   3.475  0.0000  0.0000  0.0000
    11DUM    Ar 7488   3.725   3.575   3.475  0.0000  0.0000  0.0000
    11DUM    Ar 7489   4.025   3.425   3.325  0.0000  0.0000  0.0000
    11DUM    Ar 7490   4.175   3.575   3.325  0.0000  0.0000  0.0000
    11DUM    Ar 7491   4.175   3.425   3.475  0.0000  0.0000  0.0000
    11DUM    Ar 7492   4.025   3.575   3.475  0.0000  0.0000  0.0000
    11DUM    Ar 7493  -0.175   3.725   3.325  0.0000  0.0000  0.0000
    11DUM    Ar 7494  -0.025   3.875   3.325  0.0000  0.0000  0.0000
    11DUM    Ar 7495  -0.025   3.725   3.475  0.0000  0.0000  0.0000
    11DUM    Ar 7496  -0.175   3.875   3.475  0.0000  0.0000  0.0000
    11DUM    Ar 7497   0.125   3.725   3.325  0.0000  0.0000  0.0000
    11DUM    Ar 7498   0.275   3.875   3.325  0.0000  0.0000  0.0000
    11DUM    Ar 7499   0.275   3.725   3.475  0.0000  0.0000  0.0000
    11DUM    Ar 7500   0.125   3.875   3.475  0.0000  0.0000  0.0000
    11DUM    Ar 7501   0.425   3.725   3.325  0.0000  0.0000  0.0000
    11DUM    Ar 7502   0.575   3.875   3.325  0.0000  0.0000  0.0000
    11DUM    Ar 7503   0.575   3.725   3.475  0.0000  0.0000  0.0000
    11DUM    Ar 7504   0.425   3.875   3.475  0.0000  0.0000  0.0000
    11DUM    Ar 7505   0.725   3.725   3.325  0.0000  0.0000  0.0000
    11DUM    Ar 7506   0.875   3.875   3.325  0.0000  0.0000  0.0000
    11DUM    Ar 7507   0.875   3.725   3.475  0.0000  0.0000  0.0000
    11DUM    Ar 7508   0.725   3.875   3.475  0.0000  0.0000  0.0000
    11DUM    Ar 7509   1.025   3.725   3.325  0.0000  0.0000  0.0000
    11DUM    Ar 7510   1.175   3.875   3.325  0.0000  0.0000  0.0000
    11DUM    Ar 7511   1.175   3.725   3.475  0.0000  0.0000  0.0000
    11DUM    Ar 7512   1.025   3.875   3.475  0.0000  0.0000  0.0000
    11DUM    Ar 7513   1.325   3.725   3.325  0.0000  0.0000  0.0000
    11DUM    Ar 7514   1.475   3.875   3.325  0.0000  0.0000  0.0000
    11DUM    Ar 7515   1.475   3.725   3.475  0.0000  0.0000  0.0000
    11DUM    Ar 7516   1.325   3.875   3.475  0.0000  0.0000  0.0000
    11DUM    Ar 7517   1.625   3.725   3.325  0.0000  0.0000  0.0000
    11DUM    Ar 7518   1.775   3.875   3.325  0.0000  0.0000  0.0000
    11DUM    Ar 7519   1.775   3.725   3.475  0.0000  0.0000  0.0000
    11DUM    Ar 7520   1.625   3.875   3.475  0.0000  0.0000  0.0000
    11DUM    Ar 7521   1.925   3.725   3.325  0.0000  0.0000  0.0000
    11DUM    Ar 7522   2.075   3.875   3.325  0.0000  0.0000  0.0000
    11DUM    Ar 7523   2.075   3.725   3.475  0.0000  0.0000  0.0000
    11DUM    Ar 7524   1.925   3.875   3.475  0.0000  0.0000  0.0000
    11DUM    Ar 7525   2.225   3.725   3.325  0.0000  0.0000  0.0000
    11DUM    Ar 7526   2.375   3.875   3.325  0.0000  0.0000  0.0000
    11DUM    Ar 7527   2.375   3.725   3.475  0.0000  0.0000  0.0000
    11DUM    Ar 7528   2.225   3.875   3.475  0.0000  0.0000  0.0000
    11DUM    Ar 7529   2.525   3.725   3.325  0.0000  0.0000  0.0000
    11DUM    Ar 7530   2.675   3.875   3.325  0.0000  0.0000  0.0000
    11DUM    Ar 7531   2.675   3.725   3.475  0.0000  0.0000  0.0000
    11DUM    Ar 7532   2.525   3.875   3.475  0.0000  0.0000  0.0000
    11DUM    Ar 7533   2.825   3.725   3.325  0.0000  0.0000  0.0000
    11DUM    Ar 7534   2.975   3.875   3.325  0.0000  0.0000  0.0000
    11DUM    Ar 7535   2.975   3.725   3.475  0.0000  0.0000  0.0000
    11DUM    Ar 7536   2.825   3.875   3.475  0.0000  0.0000  0.0000
    11DUM    Ar 7537   3.125   3.725   3.325  0.0000  0.0000  0.0000
    11DUM    Ar 7538   3.275   3.875   3.325  0.0000  0.0000  0.0000
    11DUM    Ar 7539   3.275   3.725   3.475  0.0000  0.0000  0.0000
    11DUM    Ar 7540   3.125   3.875   3.475  0.0000  0.0000  0.0000
    11DUM    Ar 7541   3.425   3.725   3.325  0.0000  0.0000  0.0000
    11DUM    Ar 7542   3.575   3.875   3.325  0.0000  0.0000  0.0000
    11DUM    Ar 7543   3.575   3.725   3.475  0.0000  0.0000  0.0000
    11DUM    Ar 7544   3.425   3.875   3.475  0.0000  0.0000  0.0000
    11DUM    Ar 7545   3.725   3.725   3.325  0.0000  0.0000  0.0000
    11DUM    Ar 7546   3.875   3.875   3.325  0.0000  0.0000  0.0000
    11DUM    Ar 7547   3.875   3.725   3.475  0.0000  0.0000  0.0000
    11DUM    Ar 7548   3.725   3.875   3.475  0.0000  0.0000  0.0000
    11DUM    Ar 7549   4.025   3.725   3.325  0.0000  0.0000  0.0000
    11DUM    Ar 7550   4.175   3.875   3.325  0.0000  0.0000  0.0000
    11DUM    Ar 7551   4.175   3.725   3.475  0.0000  0.0000  0.0000
    11DUM    Ar 7552   4.025   3.875   3.475  0.0000  0.0000  0.0000
    11DUM    Ar 7553  -0.175   4.025   3.325  0.0000  0.0000  0.0000
    11DUM    Ar 7554  -0.025   4.175   3.325  0.0000  0.0000  0.0000
    11DUM    Ar 7555  -0.025   4.025   3.475  0.0000  0.0000  0.0000
    11DUM    Ar 7556  -0.175   4.175   3.475  0.0000  0.0000  0.0000
    11DUM    Ar 7557   0.125   4.025   3.325  0.0000  0.0000  0.0000
    11DUM    Ar 7558   0.275   4.175   3.325  0.0000  0.0000  0.0000
    11DUM    Ar 7559   0.275   4.025   3.475  0.0000  0.0000  0.0000
    11DUM    Ar 7560   0.125   4.175   3.475  0.0000  0.0000  0.0000
    11DUM    Ar 7561   0.425   4.025   3.325  0.0000  0.0000  0.0000
    11DUM    Ar 7562   0.575   4.175   3.325  0.0000  0.0000  0.0000
    11DUM    Ar 7563   0.575   4.025   3.475  0.0000  0.0000  0.0000
    11DUM    Ar 7564   0.425   4.175   3.475  0.0000  0.0000  0.0000
    11DUM    Ar 7565   0.725   4.025   3.325  0.0000  0.0000  0.0000
    11DUM    Ar 7566   0.875   4.175   3.325  0.0000  0.0000  0.0000
    11DUM    Ar 7567   0.875   4.025   3.475  0.0000  0.0000  0.0000
    11DUM    Ar 7568   0.725   4.175   3.475  0.0000  0.0000  0.0000
    11DUM    Ar 7569   1.025   4.025   3.325  0.0000  0.0000  0.0000
    11DUM    Ar 7570   1.175   4.175   3.325  0.0000  0.0000  0.0000
    11DUM    Ar 7571   1.175   4.025   3.475  0.0000  0.0000  0.0000
    11DUM    Ar 7572   1.025   4.175   3.475  0.0000  0.0000  0.0000
    11DUM    Ar 7573   1.325   4.025   3.325  0.0000  0.0000  0.0000
    11DUM    Ar 7574   1.475   4.175   3.325  0.0000  0.0000  0.0000
    11DUM    Ar 7575   1.475   4.025   3.475  0.0000  0.0000  0.0000
    11DUM    Ar 7576   1.325   4.175   3.475  0.0000  0.0000  0.0000
    11DUM    Ar 7577   1.625   4.025   3.325  0.0000  0.0000  0.0000
    11DUM    Ar 7578   1.775   4.175   3.325  0.0000  0.0000  0.0000
    11DUM    Ar 7579   1.775   4.025   3.475  0.0000  0.0000  0.0000
    11DUM    Ar 7580   1.625   4.175   3.475  0.0000  0.0000  0.0000
    11DUM    Ar 7581   1.925   4.025   3.325  0.0000  0.0000  0.0000
    11DUM    Ar 7582   2.075   4.175   3.325  0.0000  0.0000  0.0000
    11DUM    Ar 7583   2.075   4.025   3.475  0.0000  0.0000  0.0000
    11DUM    Ar 7584   1.925   4.175   3.475  0.0000  0.0000  0.0000
    11DUM    Ar 7585   2.225   4.025   3.325  0.0000  0.0000  0.0000
    11DUM    Ar 7586   2.375   4.175   3.325  0.0000  0.0000  0.0000
    11DUM    Ar 7587   2.375   4.025   3.475  0.0000  0.0000  0.0000
    11DUM    Ar 7588   2.225   4.175   3.475  0.0000  0.0000  0.0000
    11DUM    Ar 7589   2.525   4.025   3.325  0.0000  0.0000  0.0000
    11DUM    Ar 7590   2.675   4.175   3.325  0.0000  0.0000  0.0000
    11DUM    Ar 7591   2.675   4.025   3.475  0.0000  0.0000  0.0000
    11DUM    Ar 7592   2.525   4.175   3.475  0.0000  0.0000  0.0000
    11DUM    Ar 7593   2.825   4.025   3.325  0.0000  0.0000  0.0000
    11DUM    Ar 7594   2.975   4.175   3.325  0.0000  0.0000  0.0000
    11DUM    Ar 7595   2.975   4.025   3.475  0.0000  0.0000  0.0000
    11DUM    Ar 7596   2.825   4.175   3.475  0.0000  0.0000  0.0000
    11DUM    Ar 7597   3.125   4.025   3.325  0.0000  0.0000  0.0000
    11DUM    Ar 7598   3.275   4.175   3.325  0.0000  0.0000  0.0000
    11DUM    Ar 7599   3.275   4.025   3.475  0.0000  0.0000  0.0000
    11DUM    Ar 7600   3.125   4.175   3.475  0.0000  0.0000  0.0000
    11DUM    Ar 7601   3.425   4.025   3.325  0.0000  0.0000  0.0000
    11DUM    Ar 7602   3.575   4.175   3.325  0.0000  0.0000  0.0000
    11DUM    Ar 7603   3.575   4.025   3.475  0.0000  0.0000  0.0000
    11DUM    Ar 7604   3.425   4.175   3.475  0.0000  0.0000  0.0000
    11DUM    Ar 7605   3.725   4.025   3.325  0.0000  0.0000  0.0000
    11DUM    Ar 7606   3.875   4.175   3.325  0.0000  0.0000  0.0000
    11DUM    Ar 7607   3.875   4.025   3.475  0.0000  0.0000  0.0000
    11DUM    Ar 7608   3.725   4.175   3.475  0.0000  0.0000  0.0000
    11DUM    Ar 7609   4.025   4.025   3.325  0.0000  0.0000  0.0000
    11DUM    Ar 7610   4.175   4.175   3.325  0.0000  0.0000  0.0000
    11DUM    Ar 7611   4.175   4.025   3.475  0.0000  0.0000  0.0000
    11DUM    Ar 7612   4.025   4.175   3.475  0.0000  0.0000  0.0000
    11DUM    Ar 7613  -0.175  -0.175   3.625  0.0000  0.0000  0.0000
    11DUM    Ar 7614  -0.025  -0.025   3.625  0.0000  0.0000  0.0000
    11DUM    Ar 7615  -0.025  -0.175   3.775  0.0000  0.0000  0.0000
    11DUM    Ar 7616  -0.175  -0.025   3.775  0.0000  0.0000  0.0000
    11DUM    Ar 7617   0.125  -0.175   3.625  0.0000  0.0000  0.0000
    11DUM    Ar 7618   0.275  -0.025   3.625  0.0000  0.0000  0.0000
    11DUM    Ar 7619   0.275  -0.175   3.775  0.0000  0.0000  0.0000
    11DUM    Ar 7620   0.125  -0.025   3.775  0.0000  0.0000  0.0000
    11DUM    Ar 7621   0.425  -0.175   3.625  0.0000  0.0000  0.0000
    11DUM    Ar 7622   0.575  -0.025   3.625  0.0000  0.0000  0.0000
    11DUM    Ar 7623   0.575  -0.175   3.775  0.0000  0.0000  0.0000
    11DUM    Ar 7624   0.425  -0.025   3.775  0.0000  0.0000  0.0000
    11DUM    Ar 7625   0.725  -0.175   3.625  0.0000  0.0000  0.0000
    11DUM    Ar 7626   0.875  -0.025   3.625  0.0000  0.0000  0.0000
    11DUM    Ar 7627   0.875  -0.175   3.775  0.0000  0.0000  0.0000
    11DUM    Ar 7628   0.725  -0.025   3.775  0.0000  0.0000  0.0000
    11DUM    Ar 7629   1.025  -0.175   3.625  0.0000  0.0000  0.0000
    11DUM    Ar 7630   1.175  -0.025   3.625  0.0000  0.0000  0.0000
    11DUM    Ar 7631   1.175  -0.175   3.775  0.0000  0.0000  0.0000
    11DUM    Ar 7632   1.025  -0.025   3.775  0.0000  0.0000  0.0000
    11DUM    Ar 7633   1.325  -0.175   3.625  0.0000  0.0000  0.0000
    11DUM    Ar 7634   1.475  -0.025   3.625  0.0000  0.0000  0.0000
    11DUM    Ar 7635   1.475  -0.175   3.775  0.0000  0.0000  0.0000
    11DUM    Ar 7636   1.325  -0.025   3.775  0.0000  0.0000  0.0000
    11DUM    Ar 7637   1.625  -0.175   3.625  0.0000  0.0000  0.0000
    11DUM    Ar 7638   1.775  -0.025   3.625  0.0000  0.0000  0.0000
    11DUM    Ar 7639   1.775  -0.175   3.775  0.0000  0.0000  0.0000
    11DUM    Ar 7640   1.625  -0.025   3.775  0.0000  0.0000  0.0000
    11DUM    Ar 7641   1.925  -0.175   3.625  0.0000  0.0000  0.0000
    11DUM    Ar 7642   2.075  -0.025   3.625  0.0000  0.0000  0.0000
    11DUM    Ar 7643   2.075  -0.175   3.775  0.0000  0.0000  0.0000
    11DUM    Ar 7644   1.925  -0.025   3.775  0.0000  0.0000  0.0000
    11DUM    Ar 7645   2.225  -0.175   3.625  0.0000  0.0000  0.0000
    11DUM    Ar 7646   2.375  -0.025   3.625  0.0000  0.0000  0.0000
    11DUM    Ar 7647   2.375  -0.175   3.775  0.0000  0.0000  0.0000
    11DUM    Ar 7648   2.225  -0.025   3.775  0.0000  0.0000  0.0000
    11DUM    Ar 7649   2.525  -0.175   3.625  0.0000  0.0000  0.0000
    11DUM    Ar 7650   2.675  -0.025   3.625  0.0000  0.0000  0.0000
    11DUM    Ar 7651   2.675  -0.175   3.775  0.0000  0.0000  0.0000
    11DUM    Ar 7652   2.525  -0.025   3.775  0.0000  0.0000  0.0000
    11DUM    Ar 7653   2.825  -0.175   3.625  0.0000  0.0000  0.0000
    11DUM    Ar 7654   2.975  -0.025   3.625  0.0000  0.0000  0.0000
    11DUM    Ar 7655   2.975  -0.175   3.775  0.0000  0.0000  0.0000
    11DUM    Ar 7656   2.825  -0.025   3.775  0.0000  0.0000  0.0000
    11DUM    Ar 7657   3.125  -0.175   3.625  0.0000  0.0000  0.0000
    11DUM    Ar 7658   3.275  -0.025   3.625  0.0000  0.0000  0.0000
    11DUM    Ar 7659   3.275  -0.175   3.775  0.0000  0.0000  0.0000
    11DUM    Ar 7660   3.125  -0.025   3.775  0.0000  0.0000  0.0000
    11DUM    Ar 7661   3.425  -0.175   3.625  0.0000  0.0000  0.0000
    11DUM    Ar 7662   3.575  -0.025   3.625  0.0000  0.0000  0.0000
    11DUM    Ar 7663   3.575  -0.175   3.775  0.0000  0.0000  0.0000
    11DUM    Ar 7664   3.425  -0.025   3.775  0.0000  0.0000  0.0000
    11DUM    Ar 7665   3.725  -0.175   3.625  0.0000  0.0000  0.0000
    11DUM    Ar 7666   3.875  -0.025   3.625  0.0000  0.0000  0.0000
    11DUM    Ar 7667   3.875  -0.175   3.775  0.0000  0.0000  0.0000
    11DUM    Ar 7668   3.725  -0.025   3.775  0.0000  0.0000  0.0000
    11DUM    Ar 7669   4.025  -0.175   3.625  0.0000  0.0000  0.0000
    11DUM    Ar 7670   4.175  -0.025   3.625  0.0000  0.0000  0.0000
    11DUM    Ar 7671   4.175  -0.175   3.775  0.0000  0.0000  0.0000
    11DUM    Ar 7672   4.025  -0.025   3.775  0.0000  0.0000  0.0000
    11DUM    Ar 7673  -0.175   0.125   3.625  0.0000  0.0000  0.0000
    11DUM    Ar 7674  -0.025   0.275   3.625  0.0000  0.0000  0.0000
    11DUM    Ar 7675  -0.025   0.125   3.775  0.0000  0.0000  0.0000
    11DUM    Ar 7676  -0.175   0.275   3.775  0.0000  0.0000  0.0000
    11DUM    Ar 7677   0.125   0.125   3.625  0.0000  0.0000  0.0000
    11DUM    Ar 7678   0.275   0.275   3.625  0.0000  0.0000  0.0000
    11DUM    Ar 7679   0.275   0.125   3.775  0.0000  0.0000  0.0000
    11DUM    Ar 7680   0.125   0.275   3.775  0.0000  0.0000  0.0000
    11DUM    Ar 7681   0.425   0.125   3.625  0.0000  0.0000  0.0000
    11DUM    Ar 7682   0.575   0.275   3.625  0.0000  0.0000  0.0000
    11DUM    Ar 7683   0.575   0.125   3.775  0.0000  0.0000  0.0000
    11DUM    Ar 7684   0.425   0.275   3.775  0.0000  0.0000  0.0000
    11DUM    Ar 7685   0.725   0.125   3.625  0.0000  0.0000  0.0000
    11DUM    Ar 7686   0.875   0.275   3.625  0.0000  0.0000  0.0000
    11DUM    Ar 7687   0.875   0.125   3.775  0.0000  0.0000  0.0000
    11DUM    Ar 7688   0.725   0.275   3.775  0.0000  0.0000  0.0000
    11DUM    Ar 7689   1.025   0.125   3.625  0.0000  0.0000  0.0000
    11DUM    Ar 7690   1.175   0.275   3.625  0.0000  0.0000  0.0000
    11DUM    Ar 7691   1.175   0.125   3.775  0.0000  0.0000  0.0000
    11DUM    Ar 7692   1.025   0.275   3.775  0.0000  0.0000  0.0000
    11DUM    Ar 7693   1.325   0.125   3.625  0.0000  0.0000  0.0000
    11DUM    Ar 7694   1.475   0.275   3.625  0.0000  0.0000  0.0000
    11DUM    Ar 7695   1.475   0.125   3.775  0.0000  0.0000  0.0000
    11DUM    Ar 7696   1.325   0.275   3.775  0.0000  0.0000  0.0000
    11DUM    Ar 7697   1.625   0.125   3.625  0.0000  0.0000  0.0000
    11DUM    Ar 7698   1.775   0.275   3.625  0.0000  0.0000  0.0000
    11DUM    Ar 7699   1.775   0.125   3.775  0.0000  0.0000  0.0000
    11DUM    Ar 7700   1.625   0.275   3.775  0.0000  0.0000  0.0000
    11DUM    Ar 7701   1.925   0.125   3.625  0.0000  0.0000  0.0000
    11DUM    Ar 7702   2.075   0.275   3.625  0.0000  0.0000  0.0000
    11DUM    Ar 7703   2.075   0.125   3.775  0.0000  0.0000  0.0000
    11DUM    Ar 7704   1.925   0.275   3.775  0.0000  0.0000  0.0000
    11DUM    Ar 7705   2.225   0.125   3.625  0.0000  0.0000  0.0000
    11DUM    Ar 7706   2.375   0.275   3.625  0.0000  0.0000  0.0000
    11DUM    Ar 7707   2.375   0.125   3.775  0.0000  0.0000  0.0000
    11DUM    Ar 7708   2.225   0.275   3.775  0.0000  0.0000  0.0000
    11DUM    Ar 7709   2.525   0.125   3.625  0.0000  0.0000  0.0000
    11DUM    Ar 7710   2.675   0.275   3.625  0.0000  0.0000  0.0000
    11DUM    Ar 7711   2.675   0.125   3.775  0.0000  0.0000  0.0000
    11DUM    Ar 7712   2.525   0.275   3.775  0.0000  0.0000  0.0000
    11DUM    Ar 7713   2.825   0.125   3.625  0.0000  0.0000  0.0000
    11DUM    Ar 7714   2.975   0.275   3.625  0.0000  0.0000  0.0000
    11DUM    Ar 7715   2.975   0.125   3.775  0.0000  0.0000  0.0000
    11DUM    Ar 7716   2.825   0.275   3.775  0.0000  0.0000  0.0000
    11DUM    Ar 7717   3.125   0.125   3.625  0.0000  0.0000  0.0000
    11DUM    Ar 7718   3.275   0.275   3.625  0.0000  0.0000  0.0000
    11DUM    Ar 7719   3.275   0.125   3.775  0.0000  0.0000  0.0000
    11DUM    Ar 7720   3.125   0.275   3.775  0.0000  0.0000  0.0000
    11DUM    Ar 7721   3.425   0.125   3.625  0.0000  0.0000  0.0000
    11DUM    Ar 7722   3.575   0.275   3.625  0.0000  0.0000  0.0000
    11DUM    Ar 7723   3.575   0.125   3.775  0.0000  0.0000  0.0000
    11DUM    Ar 7724   3.425   0.275   3.775  0.0000  0.0000  0.0000
    11DUM    Ar 7725   3.725   0.125   3.625  0.0000  0.0000  0.0000
    11DUM    Ar 7726   3.875   0.275   3.625  0.0000  0.0000  0.0000
    11DUM    Ar 7727   3.875   0.125   3.775  0.0000  0.0000  0.0000
    11DUM    Ar 7728   3.725   0.275   3.775  0.0000  0.0000  0.0000
    11DUM    Ar 7729   4.025   0.125   3.625  0.0000  0.0000  0.0000
    11DUM    Ar 7730   4.175   0.275   3.625  0.0000  0.0000  0.0000
    11DUM    Ar 7731   4.175   0.125   3.775  0.0000  0.0000  0.0000
    11DUM    Ar 7732   4.025   0.275   3.775  0.0000  0.0000  0.0000
    11DUM    Ar 7733  -0.175   0.425   3.625  0.0000  0.0000  0.0000
    11DUM    Ar 7734  -0.025   0.575   3.625  0.0000  0.0000  0.0000
    11DUM    Ar 7735  -0.025   0.425   3.775  0.0000  0.0000  0.0000
    11DUM    Ar 7736  -0.175   0.575   3.775  0.0000  0.0000  0.0000
    11DUM    Ar 7737   0.125   0.425   3.625  0.0000  0.0000  0.0000
    11DUM    Ar 7738   0.275   0.575   3.625  0.0000  0.0000  0.0000
    11DUM    Ar 7739   0.275   0.425   3.775  0.0000  0.0000  0.0000
    11DUM    Ar 7740   0.125   0.575   3.775  0.0000  0.0000  0.0000
    11DUM    Ar 7741   0.425   0.425   3.625  0.0000  0.0000  0.0000
    11DUM    Ar 7742   0.575   0.425   3.775  0.0000  0.0000  0.0000
    11DUM    Ar 7743   0.425   0.575   3.775  0.0000  0.0000  0.0000
    11DUM    Ar 7744   0.725   0.425   3.625  0.0000  0.0000  0.0000
    11DUM    Ar 7745   1.325   0.425   3.625  0.0000  0.0000  0.0000
    11DUM    Ar 7746   1.475   0.575   3.625  0.0000  0.0000  0.0000
    11DUM    Ar 7747   1.475   0.425   3.775  0.0000  0.0000  0.0000
    11DUM    Ar 7748   1.625   0.425   3.625  0.0000  0.0000  0.0000
    11DUM    Ar 7749   1.775   0.575   3.625  0.0000  0.0000  0.0000
    11DUM    Ar 7750   1.775   0.425   3.775  0.0000  0.0000  0.0000
    11DUM    Ar 7751   1.625   0.575   3.775  0.0000  0.0000  0.0000
    11DUM    Ar 7752   1.925   0.425   3.625  0.0000  0.0000  0.0000
    11DUM    Ar 7753   2.075   0.575   3.625  0.0000  0.0000  0.0000
    11DUM    Ar 7754   2.075   0.425   3.775  0.0000  0.0000  0.0000
    11DUM    Ar 7755   1.925   0.575   3.775  0.0000  0.0000  0.0000
    11DUM    Ar 7756   2.225   0.425   3.625  0.0000  0.0000  0.0000
    11DUM    Ar 7757   2.375   0.575   3.625  0.0000  0.0000  0.0000
    11DUM    Ar 7758   2.375   0.425   3.775  0.0000  0.0000  0.0000
    11DUM    Ar 7759   2.225   0.575   3.775  0.0000  0.0000  0.0000
    11DUM    Ar 7760   2.525   0.425   3.625  0.0000  0.0000  0.0000
    11DUM    Ar 7761   2.675   0.425   3.775  0.0000  0.0000  0.0000
    11DUM    Ar 7762   2.525   0.575   3.775  0.0000  0.0000  0.0000
    11DUM    Ar 7763   3.275   0.425   3.775  0.0000  0.0000  0.0000
    11DUM    Ar 7764   3.425   0.425   3.625  0.0000  0.0000  0.0000
    11DUM    Ar 7765   3.575   0.575   3.625  0.0000  0.0000  0.0000
    11DUM    Ar 7766   3.575   0.425   3.775  0.0000  0.0000  0.0000
    11DUM    Ar 7767   3.725   0.425   3.625  0.0000  0.0000  0.0000
    11DUM    Ar 7768   3.875   0.575   3.625  0.0000  0.0000  0.0000
    11DUM    Ar 7769   3.875   0.425   3.775  0.0000  0.0000  0.0000
    11DUM    Ar 7770   3.725   0.575   3.775  0.0000  0.0000  0.0000
    11DUM    Ar 7771   4.025   0.425   3.625  0.0000  0.0000  0.0000
    11DUM    Ar 7772   4.175   0.575   3.625  0.0000  0.0000  0.0000
    11DUM    Ar 7773   4.175   0.425   3.775  0.0000  0.0000  0.0000
    11DUM    Ar 7774   4.025   0.575   3.775  0.0000  0.0000  0.0000
    11DUM    Ar 7775  -0.175   0.725   3.625  0.0000  0.0000  0.0000
    11DUM    Ar 7776  -0.025   0.875   3.625  0.0000  0.0000  0.0000
    11DUM    Ar 7777  -0.025   0.725   3.775  0.0000  0.0000  0.0000
    11DUM    Ar 7778  -0.175   0.875   3.775  0.0000  0.0000  0.0000
    11DUM    Ar 7779   0.125   0.725   3.625  0.0000  0.0000  0.0000
    11DUM    Ar 7780   0.275   0.875   3.625  0.0000  0.0000  0.0000
    11DUM    Ar 7781   0.275   0.725   3.775  0.0000  0.0000  0.0000
    11DUM    Ar 7782   0.125   0.875   3.775  0.0000  0.0000  0.0000
    11DUM    Ar 7783   0.425   0.725   3.625  0.0000  0.0000  0.0000
    11DUM    Ar 7784   1.625   0.725   3.625  0.0000  0.0000  0.0000
    11DUM    Ar 7785   1.775   0.875   3.625  0.0000  0.0000  0.0000
    11DUM    Ar 7786   1.775   0.725   3.775  0.0000  0.0000  0.0000
    11DUM    Ar 7787   1.625   0.875   3.775  0.0000  0.0000  0.0000
    11DUM    Ar 7788   1.925   0.725   3.625  0.0000  0.0000  0.0000
    11DUM    Ar 7789   2.075   0.875   3.625  0.0000  0.0000  0.0000
    11DUM    Ar 7790   2.075   0.725   3.775  0.0000  0.0000  0.0000
    11DUM    Ar 7791   1.925   0.875   3.775  0.0000  0.0000  0.0000
    11DUM    Ar 7792   2.225   0.725   3.625  0.0000  0.0000  0.0000
    11DUM    Ar 7793   2.375   0.875   3.625  0.0000  0.0000  0.0000
    11DUM    Ar 7794   2.375   0.725   3.775  0.0000  0.0000  0.0000
    11DUM    Ar 7795   2.225   0.875   3.775  0.0000  0.0000  0.0000
    11DUM    Ar 7796   3.575   0.725   3.775  0.0000  0.0000  0.0000
    11DUM    Ar 7797   3.725   0.725   3.625  0.0000  0.0000  0.0000
    11DUM    Ar 7798   3.875   0.875   3.625  0.0000  0.0000  0.0000
    11DUM    Ar 7799   3.875   0.725   3.775  0.0000  0.0000  0.0000
    11DUM    Ar 7800   3.725   0.875   3.775  0.0000  0.0000  0.0000
    11DUM    Ar 7801   4.025   0.725   3.625  0.0000  0.0000  0.0000
    11DUM    Ar 7802   4.175   0.875   3.625  0.0000  0.0000  0.0000
    11DUM    Ar 7803   4.175   0.725   3.775  0.0000  0.0000  0.0000
    11DUM    Ar 7804   4.025   0.875   3.775  0.0000  0.0000  0.0000
    11DUM    Ar 7805  -0.175   1.025   3.625  0.0000  0.0000  0.0000
    11DUM    Ar 7806  -0.025   1.175   3.625  0.0000  0.0000  0.0000
    11DUM    Ar 7807  -0.025   1.025   3.775  0.0000  0.0000  0.0000
    11DUM    Ar 7808  -0.175   1.175   3.775  0.0000  0.0000  0.0000
    11DUM    Ar 7809   0.125   1.025   3.625  0.0000  0.0000  0.0000
    11DUM    Ar 7810   0.275   1.175   3.625  0.0000  0.0000  0.0000
    11DUM    Ar 7811   0.275   1.025   3.775  0.0000  0.0000  0.0000
    11DUM    Ar 7812   0.125   1.175   3.775  0.0000  0.0000  0.0000
    11DUM    Ar 7813   1.625   1.025   3.625  0.0000  0.0000  0.0000
    11DUM    Ar 7814   1.775   1.175   3.625  0.0000  0.0000  0.0000
    11DUM    Ar 7815   1.775   1.025   3.775  0.0000  0.0000  0.0000
    11DUM    Ar 7816   1.625   1.175   3.775  0.0000  0.0000  0.0000
    11DUM    Ar 7817   1.925   1.025   3.625  0.0000  0.0000  0.0000
    11DUM    Ar 7818   2.075   1.175   3.625  0.0000  0.0000  0.0000
    11DUM    Ar 7819   2.075   1.025   3.775  0.0000  0.0000  0.0000
    11DUM    Ar 7820   1.925   1.175   3.775  0.0000  0.0000  0.0000
    11DUM    Ar 7821   2.225   1.025   3.625  0.0000  0.0000  0.0000
    11DUM    Ar 7822   2.375   1.175   3.625  0.0000  0.0000  0.0000
    11DUM    Ar 7823   2.375   1.025   3.775  0.0000  0.0000  0.0000
    11DUM    Ar 7824   2.225   1.175   3.775  0.0000  0.0000  0.0000
    11DUM    Ar 7825   3.725   1.025   3.625  0.0000  0.0000  0.0000
    11DUM    Ar 7826   3.875   1.175   3.625  0.0000  0.0000  0.0000
    11DUM    Ar 7827   3.875   1.025   3.775  0.0000  0.0000  0.0000
    11DUM    Ar 7828   3.725   1.175   3.775  0.0000  0.0000  0.0000
    11DUM    Ar 7829   4.025   1.025   3.625  0.0000  0.0000  0.0000
    11DUM    Ar 7830   4.175   1.175   3.625  0.0000  0.0000  0.0000
    11DUM    Ar 7831   4.175   1.025   3.775  0.0000  0.0000  0.0000
    11DUM    Ar 7832   4.025   1.175   3.775  0.0000  0.0000  0.0000
    11DUM    Ar 7833  -0.175   1.325   3.625  0.0000  0.0000  0.0000
    11DUM    Ar 7834  -0.025   1.475   3.625  0.0000  0.0000  0.0000
    11DUM    Ar 7835  -0.025   1.325   3.775  0.0000  0.0000  0.0000
    11DUM    Ar 7836  -0.175   1.475   3.775  0.0000  0.0000  0.0000
    11DUM    Ar 7837   0.125   1.325   3.625  0.0000  0.0000  0.0000
    11DUM    Ar 7838   0.275   1.475   3.625  0.0000  0.0000  0.0000
    11DUM    Ar 7839   0.275   1.325   3.775  0.0000  0.0000  0.0000
    11DUM    Ar 7840   0.125   1.475   3.775  0.0000  0.0000  0.0000
    11DUM    Ar 7841   0.425   1.325   3.625  0.0000  0.0000  0.0000
    11DUM    Ar 7842   0.575   1.475   3.625  0.0000  0.0000  0.0000
    11DUM    Ar 7843   0.425   1.475   3.775  0.0000  0.0000  0.0000
    11DUM    Ar 7844   1.475   1.475   3.625  0.0000  0.0000  0.0000
    11DUM    Ar 7845   1.625   1.325   3.625  0.0000  0.0000  0.0000
    11DUM    Ar 7846   1.775   1.475   3.625  0.0000  0.0000  0.0000
    11DUM    Ar 7847   1.775   1.325   3.775  0.0000  0.0000  0.0000
    11DUM    Ar 7848   1.625   1.475   3.775  0.0000  0.0000  0.0000
    11DUM    Ar 7849   1.925   1.325   3.625  0.0000  0.0000  0.0000
    11DUM    Ar 7850   2.075   1.475   3.625  0.0000  0.0000  0.0000
    11DUM    Ar 7851   2.075   1.325   3.775  0.0000  0.0000  0.0000
    11DUM    Ar 7852   1.925   1.475   3.775  0.0000  0.0000  0.0000
    11DUM    Ar 7853   2.225   1.325   3.625  0.0000  0.0000  0.0000
    11DUM    Ar 7854   2.375   1.475   3.625  0.0000  0.0000  0.0000
    11DUM    Ar 7855   2.375   1.325   3.775  0.0000  0.0000  0.0000
    11DUM    Ar 7856   2.225   1.475   3.775  0.0000  0.0000  0.0000
    11DUM    Ar 7857   2.525   1.475   3.775  0.0000  0.0000  0.0000
    11DUM    Ar 7858   3.575   1.475   3.625  0.0000  0.0000  0.0000
    11DUM    Ar 7859   3.575   1.325   3.775  0.0000  0.0000  0.0000
    11DUM    Ar 7860   3.425   1.475   3.775  0.0000  0.0000  0.0000
    11DUM    Ar 7861   3.725   1.325   3.625  0.0000  0.0000  0.0000
    11DUM    Ar 7862   3.875   1.475   3.625  0.0000  0.0000  0.0000
    11DUM    Ar 7863   3.875   1.325   3.775  0.0000  0.0000  0.0000
    11DUM    Ar 7864   3.725   1.475   3.775  0.0000  0.0000  0.0000
    11DUM    Ar 7865   4.025   1.325   3.625  0.0000  0.0000  0.0000
    11DUM    Ar 7866   4.175   1.475   3.625  0.0000  0.0000  0.0000
    11DUM    Ar 7867   4.175   1.325   3.775  0.0000  0.0000  0.0000
    11DUM    Ar 7868   4.025   1.475   3.775  0.0000  0.0000  0.0000
    11DUM    Ar 7869  -0.175   1.625   3.625  0.0000  0.0000  0.0000
    11DUM    Ar 7870  -0.025   1.775   3.625  0.0000  0.0000  0.0000
    11DUM    Ar 7871  -0.025   1.625   3.775  0.0000  0.0000  0.0000
    11DUM    Ar 7872  -0.175   1.775   3.775  0.0000  0.0000  0.0000
    11DUM    Ar 7873   0.125   1.625   3.625  0.0000  0.0000  0.0000
    11DUM    Ar 7874   0.275   1.775   3.625  0.0000  0.0000  0.0000
    11DUM    Ar 7875   0.275   1.625   3.775  0.0000  0.0000  0.0000
    11DUM    Ar 7876   0.125   1.775   3.775  0.0000  0.0000  0.0000
    11DUM    Ar 7877   0.425   1.625   3.625  0.0000  0.0000  0.0000
    11DUM    Ar 7878   0.575   1.775   3.625  0.0000  0.0000  0.0000
    11DUM    Ar 7879   0.575   1.625   3.775  0.0000  0.0000  0.0000
    11DUM    Ar 7880   0.425   1.775   3.775  0.0000  0.0000  0.0000
    11DUM    Ar 7881   0.725   1.625   3.625  0.0000  0.0000  0.0000
    11DUM    Ar 7882   0.875   1.775   3.625  0.0000  0.0000  0.0000
    11DUM    Ar 7883   0.875   1.625   3.775  0.0000  0.0000  0.0000
    11DUM    Ar 7884   0.725   1.775   3.775  0.0000  0.0000  0.0000
    11DUM    Ar 7885   1.025   1.625   3.625  0.0000  0.0000  0.0000
    11DUM    Ar 7886   1.175   1.775   3.625  0.0000  0.0000  0.0000
    11DUM    Ar 7887   1.175   1.625   3.775  0.0000  0.0000  0.0000
    11DUM    Ar 7888   1.025   1.775   3.775  0.0000  0.0000  0.0000
    11DUM    Ar 7889   1.325   1.625   3.625  0.0000  0.0000  0.0000
    11DUM    Ar 7890   1.475   1.775   3.625  0.0000  0.0000  0.0000
    11DUM    Ar 7891   1.475   1.625   3.775  0.0000  0.0000  0.0000
    11DUM    Ar 7892   1.325   1.775   3.775  0.0000  0.0000  0.0000
    11DUM    Ar 7893   1.625   1.625   3.625  0.0000  0.0000  0.0000
    11DUM    Ar 7894   1.775   1.775   3.625  0.0000  0.0000  0.0000
    11DUM    Ar 7895   1.775   1.625   3.775  0.0000  0.0000  0.0000
    11DUM    Ar 7896   1.625   1.775   3.775  0.0000  0.0000  0.0000
    11DUM    Ar 7897   1.925   1.625   3.625  0.0000  0.0000  0.0000
    11DUM    Ar 7898   2.075   1.775   3.625  0.0000  0.0000  0.0000
    11DUM    Ar 7899   2.075   1.625   3.775  0.0000  0.0000  0.0000
    11DUM    Ar 7900   1.925   1.775   3.775  0.0000  0.0000  0.0000
    11DUM    Ar 7901   2.225   1.625   3.625  0.0000  0.0000  0.0000
    11DUM    Ar 7902   2.375   1.775   3.625  0.0000  0.0000  0.0000
    11DUM    Ar 7903   2.375   1.625   3.775  0.0000  0.0000  0.0000
    11DUM    Ar 7904   2.225   1.775   3.775  0.0000  0.0000  0.0000
    11DUM    Ar 7905   2.525   1.625   3.625  0.0000  0.0000  0.0000
    11DUM    Ar 7906   2.675   1.775   3.625  0.0000  0.0000  0.0000
    11DUM    Ar 7907   2.675   1.625   3.775  0.0000  0.0000  0.0000
    11DUM    Ar 7908   2.525   1.775   3.775  0.0000  0.0000  0.0000
    11DUM    Ar 7909   2.825   1.625   3.625  0.0000  0.0000  0.0000
    11DUM    Ar 7910   2.975   1.775   3.625  0.0000  0.0000  0.0000
    11DUM    Ar 7911   2.975   1.625   3.775  0.0000  0.0000  0.0000
    11DUM    Ar 7912   2.825   1.775   3.775  0.0000  0.0000  0.0000
    11DUM    Ar 7913   3.125   1.625   3.625  0.0000  0.0000  0.0000
    11DUM    Ar 7914   3.275   1.775   3.625  0.0000  0.0000  0.0000
    11DUM    Ar 7915   3.275   1.625   3.775  0.0000  0.0000  0.0000
    11DUM    Ar 7916   3.125   1.775   3.775  0.0000  0.0000  0.0000
    11DUM    Ar 7917   3.425   1.625   3.625  0.0000  0.0000  0.0000
    11DUM    Ar 7918   3.575   1.775   3.625  0.0000  0.0000  0.0000
    11DUM    Ar 7919   3.575   1.625   3.775  0.0000  0.0000  0.0000
    11DUM    Ar 7920   3.425   1.775   3.775  0.0000  0.0000  0.0000
    11DUM    Ar 7921   3.725   1.625   3.625  0.0000  0.0000  0.0000
    11DUM    Ar 7922   3.875   1.775   3.625  0.0000  0.0000  0.0000
    11DUM    Ar 7923   3.875   1.625   3.775  0.0000  0.0000  0.0000
    11DUM    Ar 7924   3.725   1.775   3.775  0.0000  0.0000  0.0000
    11DUM    Ar 7925   4.025   1.625   3.625  0.0000  0.0000  0.0000
    11DUM    Ar 7926   4.175   1.775   3.625  0.0000  0.0000  0.0000
    11DUM    Ar 7927   4.175   1.625   3.775  0.0000  0.0000  0.0000
    11DUM    Ar 7928   4.025   1.775   3.775  0.0000  0.0000  0.0000
    11DUM    Ar 7929  -0.175   1.925   3.625  0.0000  0.0000  0.0000
    11DUM    Ar 7930  -0.025   2.075   3.625  0.0000  0.0000  0.0000
    11DUM    Ar 7931  -0.025   1.925   3.775  0.0000  0.0000  0.0000
    11DUM    Ar 7932  -0.175   2.075   3.775  0.0000  0.0000  0.0000
    11DUM    Ar 7933   0.125   1.925   3.625  0.0000  0.0000  0.0000
    11DUM    Ar 7934   0.275   2.075   3.625  0.0000  0.0000  0.0000
    11DUM    Ar 7935   0.275   1.925   3.775  0.0000  0.0000  0.0000
    11DUM    Ar 7936   0.125   2.075   3.775  0.0000  0.0000  0.0000
    11DUM    Ar 7937   0.425   1.925   3.625  0.0000  0.0000  0.0000
    11DUM    Ar 7938   0.575   2.075   3.625  0.0000  0.0000  0.0000
    11DUM    Ar 7939   0.575   1.925   3.775  0.0000  0.0000  0.0000
    11DUM    Ar 7940   0.425   2.075   3.775  0.0000  0.0000  0.0000
    11DUM    Ar 7941   0.725   1.925   3.625  0.0000  0.0000  0.0000
    11DUM    Ar 7942   0.875   2.075   3.625  0.0000  0.0000  0.0000
    11DUM    Ar 7943   0.875   1.925   3.775  0.0000  0.0000  0.0000
    11DUM    Ar 7944   0.725   2.075   3.775  0.0000  0.0000  0.0000
    11DUM    Ar 7945   1.025   1.925   3.625  0.0000  0.0000  0.0000
    11DUM    Ar 7946   1.175   2.075   3.625  0.0000  0.0000  0.0000
    11DUM    Ar 7947   1.175   1.925   3.775  0.0000  0.0000  0.0000
    11DUM    Ar 7948   1.025   2.075   3.775  0.0000  0.0000  0.0000
    11DUM    Ar 7949   1.325   1.925   3.625  0.0000  0.0000  0.0000
    11DUM    Ar 7950   1.475   2.075   3.625  0.0000  0.0000  0.0000
    11DUM    Ar 7951   1.475   1.925   3.775  0.0000  0.0000  0.0000
    11DUM    Ar 7952   1.325   2.075   3.775  0.0000  0.0000  0.0000
    11DUM    Ar 7953   1.625   1.925   3.625  0.0000  0.0000  0.0000
    11DUM    Ar 7954   1.775   2.075   3.625  0.0000  0.0000  0.0000
    11DUM    Ar 7955   1.775   1.925   3.775  0.0000  0.0000  0.0000
    11DUM    Ar 7956   1.625   2.075   3.775  0.0000  0.0000  0.0000
    11DUM    Ar 7957   1.925   1.925   3.625  0.0000  0.0000  0.0000
    11DUM    Ar 7958   2.075   2.075   3.625  0.0000  0.0000  0.0000
    11DUM    Ar 7959   2.075   1.925   3.775  0.0000  0.0000  0.0000
    11DUM    Ar 7960   1.925   2.075   3.775  0.0000  0.0000  0.0000
    11DUM    Ar 7961   2.225   1.925   3.625  0.0000  0.0000  0.0000
    11DUM    Ar 7962   2.375   2.075   3.625  0.0000  0.0000  0.0000
    11DUM    Ar 7963   2.375   1.925   3.775  0.0000  0.0000  0.0000
    11DUM    Ar 7964   2.225   2.075   3.775  0.0000  0.0000  0.0000
    11DUM    Ar 7965   2.525   1.925   3.625  0.0000  0.0000  0.0000
    11DUM    Ar 7966   2.675   2.075   3.625  0.0000  0.0000  0.0000
    11DUM    Ar 7967   2.675   1.925   3.775  0.0000  0.0000  0.0000
    11DUM    Ar 7968   2.525   2.075   3.775  0.0000  0.0000  0.0000
    11DUM    Ar 7969   2.825   1.925   3.625  0.0000  0.0000  0.0000
    11DUM    Ar 7970   2.975   2.075   3.625  0.0000  0.0000  0.0000
    11DUM    Ar 7971   2.975   1.925   3.775  0.0000  0.0000  0.0000
    11DUM    Ar 7972   2.825   2.075   3.775  0.0000  0.0000  0.0000
    11DUM    Ar 7973   3.125   1.925   3.625  0.0000  0.0000  0.0000
    11DUM    Ar 7974   3.275   2.075   3.625  0.0000  0.0000  0.0000
    11DUM    Ar 7975   3.275   1.925   3.775  0.0000  0.0000  0.0000
    11DUM    Ar 7976   3.125   2.075   3.775  0.0000  0.0000  0.0000
    11DUM    Ar 7977   3.425   1.925   3.625  0.0000  0.0000  0.0000
    11DUM    Ar 7978   3.575   2.075   3.625  0.0000  0.0000  0.0000
    11DUM    Ar 7979   3.575   1.925   3.775  0.0000  0.0000  0.0000
    11DUM    Ar 7980   3.425   2.075   3.775  0.0000  0.0000  0.0000
    11DUM    Ar 7981   3.725   1.925   3.625  0.0000  0.0000  0.0000
    11DUM    Ar 7982   3.875   2.075   3.625  0.0000  0.0000  0.0000
    11DUM    Ar 7983   3.875   1.925   3.775  0.0000  0.0000  0.0000
    11DUM    Ar 7984   3.725   2.075   3.775  0.0000  0.0000  0.0000
    11DUM    Ar 7985   4.025   1.925   3.625  0.0000  0.0000  0.0000
    11DUM    Ar 7986   4.175   2.075   3.625  0.0000  0.0000  0.0000
    11DUM    Ar 7987   4.175   1.925   3.775  0.0000  0.0000  0.0000
    11DUM    Ar 7988   4.025   2.075   3.775  0.0000  0.0000  0.0000
    11DUM    Ar 7989  -0.175   2.225   3.625  0.0000  0.0000  0.0000
    11DUM    Ar 7990  -0.025   2.375   3.625  0.0000  0.0000  0.0000
    11DUM    Ar 7991  -0.025   2.225   3.775  0.0000  0.0000  0.0000
    11DUM    Ar 7992  -0.175   2.375   3.775  0.0000  0.0000  0.0000
    11DUM    Ar 7993   0.125   2.225   3.625  0.0000  0.0000  0.0000
    11DUM    Ar 7994   0.275   2.375   3.625  0.0000  0.0000  0.0000
    11DUM    Ar 7995   0.275   2.225   3.775  0.0000  0.0000  0.0000
    11DUM    Ar 7996   0.125   2.375   3.775  0.0000  0.0000  0.0000
    11DUM    Ar 7997   0.425   2.225   3.625  0.0000  0.0000  0.0000
    11DUM    Ar 7998   0.575   2.375   3.625  0.0000  0.0000  0.0000
    11DUM    Ar 7999   0.575   2.225   3.775  0.0000  0.0000  0.0000
    11DUM    Ar 8000   0.425   2.375   3.775  0.0000  0.0000  0.0000
    11DUM    Ar 8001   0.725   2.225   3.625  0.0000  0.0000  0.0000
    11DUM    Ar 8002   0.875   2.375   3.625  0.0000  0.0000  0.0000
    11DUM    Ar 8003   0.875   2.225   3.775  0.0000  0.0000  0.0000
    11DUM    Ar 8004   0.725   2.375   3.775  0.0000  0.0000  0.0000
    11DUM    Ar 8005   1.025   2.225   3.625  0.0000  0.0000  0.0000
    11DUM    Ar 8006   1.175   2.375   3.625  0.0000  0.0000  0.0000
    11DUM    Ar 8007   1.175   2.225   3.775  0.0000  0.0000  0.0000
    11DUM    Ar 8008   1.025   2.375   3.775  0.0000  0.0000  0.0000
    11DUM    Ar 8009   1.325   2.225   3.625  0.0000  0.0000  0.0000
    11DUM    Ar 8010   1.475   2.375   3.625  0.0000  0.0000  0.0000
    11DUM    Ar 8011   1.475   2.225   3.775  0.0000  0.0000  0.0000
    11DUM    Ar 8012   1.325   2.375   3.775  0.0000  0.0000  0.0000
    11DUM    Ar 8013   1.625   2.225   3.625  0.0000  0.0000  0.0000
    11DUM    Ar 8014   1.775   2.375   3.625  0.0000  0.0000  0.0000
    11DUM    Ar 8015   1.775   2.225   3.775  0.0000  0.0000  0.0000
    11DUM    Ar 8016   1.625   2.375   3.775  0.0000  0.0000  0.0000
    11DUM    Ar 8017   1.925   2.225   3.625  0.0000  0.0000  0.0000
    11DUM    Ar 8018   2.075   2.375   3.625  0.0000  0.0000  0.0000
    11DUM    Ar 8019   2.075   2.225   3.775  0.0000  0.0000  0.0000
    11DUM    Ar 8020   1.925   2.375   3.775  0.0000  0.0000  0.0000
    11DUM    Ar 8021   2.225   2.225   3.625  0.0000  0.0000  0.0000
    11DUM    Ar 8022   2.375   2.375   3.625  0.0000  0.0000  0.0000
    11DUM    Ar 8023   2.375   2.225   3.775  0.0000  0.0000  0.0000
    11DUM    Ar 8024   2.225   2.375   3.775  0.0000  0.0000  0.0000
    11DUM    Ar 8025   2.525   2.225   3.625  0.0000  0.0000  0.0000
    11DUM    Ar 8026   2.675   2.375   3.625  0.0000  0.0000  0.0000
    11DUM    Ar 8027   2.675   2.225   3.775  0.0000  0.0000  0.0000
    11DUM    Ar 8028   2.525   2.375   3.775  0.0000  0.0000  0.0000
    11DUM    Ar 8029   2.825   2.225   3.625  0.0000  0.0000  0.0000
    11DUM    Ar 8030   2.975   2.375   3.625  0.0000  0.0000  0.0000
    11DUM    Ar 8031   2.975   2.225   3.775  0.0000  0.0000  0.0000
    11DUM    Ar 8032   2.825   2.375   3.775  0.0000  0.0000  0.0000
    11DUM    Ar 8033   3.125   2.225   3.625  0.0000  0.0000  0.0000
    11DUM    Ar 8034   3.275   2.375   3.625  0.0000  0.0000  0.0000
    11DUM    Ar 8035   3.275   2.225   3.775  0.0000  0.0000  0.0000
    11DUM    Ar 8036   3.125   2.375   3.775  0.0000  0.0000  0.0000
    11DUM    Ar 8037   3.425   2.225   3.625  0.0000  0.0000  0.0000
    11DUM    Ar 8038   3.575   2.375   3.625  0.0000  0.0000  0.0000
    11DUM    Ar 8039   3.575   2.225   3.775  0.0000  0.0000  0.0000
    11DUM    Ar 8040   3.425   2.375   3.775  0.0000  0.0000  0.0000
    11DUM    Ar 8041   3.725   2.225   3.625  0.0000  0.0000  0.0000
    11DUM    Ar 8042   3.875   2.375   3.625  0.0000  0.0000  0.0000
    11DUM    Ar 8043   3.875   2.225   3.775  0.0000  0.0000  0.0000
    11DUM    Ar 8044   3.725   2.375   3.775  0.0000  0.0000  0.0000
    11DUM    Ar 8045   4.025   2.225   3.625  0.0000  0.0000  0.0000
    11DUM    Ar 8046   4.175   2.375   3.625  0.0000  0.0000  0.0000
    11DUM    Ar 8047   4.175   2.225   3.775  0.0000  0.0000  0.0000
    11DUM    Ar 8048   4.025   2.375   3.775  0.0000  0.0000  0.0000
    11DUM    Ar 8049  -0.175   2.525   3.625  0.0000  0.0000  0.0000
    11DUM    Ar 8050  -0.025   2.675   3.625  0.0000  0.0000  0.0000
    11DUM    Ar 8051  -0.025   2.525   3.775  0.0000  0.0000  0.0000
    11DUM    Ar 8052  -0.175   2.675   3.775  0.0000  0.0000  0.0000
    11DUM    Ar 8053   0.125   2.525   3.625  0.0000  0.0000  0.0000
    11DUM    Ar 8054   0.275   2.675   3.625  0.0000  0.0000  0.0000
    11DUM    Ar 8055   0.275   2.525   3.775  0.0000  0.0000  0.0000
    11DUM    Ar 8056   0.125   2.675   3.775  0.0000  0.0000  0.0000
    11DUM    Ar 8057   0.425   2.525   3.625  0.0000  0.0000  0.0000
    11DUM    Ar 8058   0.575   2.525   3.775  0.0000  0.0000  0.0000
    11DUM    Ar 8059   0.425   2.675   3.775  0.0000  0.0000  0.0000
    11DUM    Ar 8060   1.475   2.525   3.775  0.0000  0.0000  0.0000
    11DUM    Ar 8061   1.625   2.525   3.625  0.0000  0.0000  0.0000
    11DUM    Ar 8062   1.775   2.675   3.625  0.0000  0.0000  0.0000
    11DUM    Ar 8063   1.775   2.525   3.775  0.0000  0.0000  0.0000
    11DUM    Ar 8064   1.625   2.675   3.775  0.0000  0.0000  0.0000
    11DUM    Ar 8065   1.925   2.525   3.625  0.0000  0.0000  0.0000
    11DUM    Ar 8066   2.075   2.675   3.625  0.0000  0.0000  0.0000
    11DUM    Ar 8067   2.075   2.525   3.775  0.0000  0.0000  0.0000
    11DUM    Ar 8068   1.925   2.675   3.775  0.0000  0.0000  0.0000
    11DUM    Ar 8069   2.225   2.525   3.625  0.0000  0.0000  0.0000
    11DUM    Ar 8070   2.375   2.675   3.625  0.0000  0.0000  0.0000
    11DUM    Ar 8071   2.375   2.525   3.775  0.0000  0.0000  0.0000
    11DUM    Ar 8072   2.225   2.675   3.775  0.0000  0.0000  0.0000
    11DUM    Ar 8073   2.525   2.525   3.625  0.0000  0.0000  0.0000
    11DUM    Ar 8074   3.425   2.525   3.625  0.0000  0.0000  0.0000
    11DUM    Ar 8075   3.575   2.675   3.625  0.0000  0.0000  0.0000
    11DUM    Ar 8076   3.575   2.525   3.775  0.0000  0.0000  0.0000
    11DUM    Ar 8077   3.725   2.525   3.625  0.0000  0.0000  0.0000
    11DUM    Ar 8078   3.875   2.675   3.625  0.0000  0.0000  0.0000
    11DUM    Ar 8079   3.875   2.525   3.775  0.0000  0.0000  0.0000
    11DUM    Ar 8080   3.725   2.675   3.775  0.0000  0.0000  0.0000
    11DUM    Ar 8081   4.025   2.525   3.625  0.0000  0.0000  0.0000
    11DUM    Ar 8082   4.175   2.675   3.625  0.0000  0.0000  0.0000
    11DUM    Ar 8083   4.175   2.525   3.775  0.0000  0.0000  0.0000
    11DUM    Ar 8084   4.025   2.675   3.775  0.0000  0.0000  0.0000
    11DUM    Ar 8085  -0.175   2.825   3.625  0.0000  0.0000  0.0000
    11DUM    Ar 8086  -0.025   2.975   3.625  0.0000  0.0000  0.0000
    11DUM    Ar 8087  -0.025   2.825   3.775  0.0000  0.0000  0.0000
    11DUM    Ar 8088  -0.175   2.975   3.775  0.0000  0.0000  0.0000
    11DUM    Ar 8089   0.125   2.825   3.625  0.0000  0.0000  0.0000
    11DUM    Ar 8090   0.275   2.975   3.625  0.0000  0.0000  0.0000
    11DUM    Ar 8091   0.275   2.825   3.775  0.0000  0.0000  0.0000
    11DUM    Ar 8092   0.125   2.975   3.775  0.0000  0.0000  0.0000
    11DUM    Ar 8093   1.625   2.825   3.625  0.0000  0.0000  0.0000
    11DUM    Ar 8094   1.775   2.975   3.625  0.0000  0.0000  0.0000
    11DUM    Ar 8095   1.775   2.825   3.775  0.0000  0.0000  0.0000
    11DUM    Ar 8096   1.625   2.975   3.775  0.0000  0.0000  0.0000
    11DUM    Ar 8097   1.925   2.825   3.625  0.0000  0.0000  0.0000
    11DUM    Ar 8098   2.075   2.975   3.625  0.0000  0.0000  0.0000
    11DUM    Ar 8099   2.075   2.825   3.775  0.0000  0.0000  0.0000
    11DUM    Ar 8100   1.925   2.975   3.775  0.0000  0.0000  0.0000
    11DUM    Ar 8101   2.225   2.825   3.625  0.0000  0.0000  0.0000
    11DUM    Ar 8102   2.375   2.975   3.625  0.0000  0.0000  0.0000
    11DUM    Ar 8103   2.375   2.825   3.775  0.0000  0.0000  0.0000
    11DUM    Ar 8104   2.225   2.975   3.775  0.0000  0.0000  0.0000
    11DUM    Ar 8105   3.725   2.825   3.625  0.0000  0.0000  0.0000
    11DUM    Ar 8106   3.875   2.975   3.625  0.0000  0.0000  0.0000
    11DUM    Ar 8107   3.875   2.825   3.775  0.0000  0.0000  0.0000
    11DUM    Ar 8108   3.725   2.975   3.775  0.0000  0.0000  0.0000
    11DUM    Ar 8109   4.025   2.825   3.625  0.0000  0.0000  0.0000
    11DUM    Ar 8110   4.175   2.975   3.625  0.0000  0.0000  0.0000
    11DUM    Ar 8111   4.175   2.825   3.775  0.0000  0.0000  0.0000
    11DUM    Ar 8112   4.025   2.975   3.775  0.0000  0.0000  0.0000
    11DUM    Ar 8113  -0.175   3.125   3.625  0.0000  0.0000  0.0000
    11DUM    Ar 8114  -0.025   3.275   3.625  0.0000  0.0000  0.0000
    11DUM    Ar 8115  -0.025   3.125   3.775  0.0000  0.0000  0.0000
    11DUM    Ar 8116  -0.175   3.275   3.775  0.0000  0.0000  0.0000
    11DUM    Ar 8117   0.125   3.125   3.625  0.0000  0.0000  0.0000
    11DUM    Ar 8118   0.275   3.275   3.625  0.0000  0.0000  0.0000
    11DUM    Ar 8119   0.275   3.125   3.775  0.0000  0.0000  0.0000
    11DUM    Ar 8120   0.125   3.275   3.775  0.0000  0.0000  0.0000
    11DUM    Ar 8121   0.425   3.275   3.775  0.0000  0.0000  0.0000
    11DUM    Ar 8122   1.625   3.125   3.625  0.0000  0.0000  0.0000
    11DUM    Ar 8123   1.775   3.275   3.625  0.0000  0.0000  0.0000
    11DUM    Ar 8124   1.775   3.125   3.775  0.0000  0.0000  0.0000
    11DUM    Ar 8125   1.625   3.275   3.775  0.0000  0.0000  0.0000
    11DUM    Ar 8126   1.925   3.125   3.625  0.0000  0.0000  0.0000
    11DUM    Ar 8127   2.075   3.275   3.625  0.0000  0.0000  0.0000
    11DUM    Ar 8128   2.075   3.125   3.775  0.0000  0.0000  0.0000
    11DUM    Ar 8129   1.925   3.275   3.775  0.0000  0.0000  0.0000
    11DUM    Ar 8130   2.225   3.125   3.625  0.0000  0.0000  0.0000
    11DUM    Ar 8131   2.375   3.275   3.625  0.0000  0.0000  0.0000
    11DUM    Ar 8132   2.375   3.125   3.775  0.0000  0.0000  0.0000
    11DUM    Ar 8133   2.225   3.275   3.775  0.0000  0.0000  0.0000
    11DUM    Ar 8134   3.575   3.275   3.625  0.0000  0.0000  0.0000
    11DUM    Ar 8135   3.725   3.125   3.625  0.0000  0.0000  0.0000
    11DUM    Ar 8136   3.875   3.275   3.625  0.0000  0.0000  0.0000
    11DUM    Ar 8137   3.875   3.125   3.775  0.0000  0.0000  0.0000
    11DUM    Ar 8138   3.725   3.275   3.775  0.0000  0.0000  0.0000
    11DUM    Ar 8139   4.025   3.125   3.625  0.0000  0.0000  0.0000
    11DUM    Ar 8140   4.175   3.275   3.625  0.0000  0.0000  0.0000
    11DUM    Ar 8141   4.175   3.125   3.775  0.0000  0.0000  0.0000
    11DUM    Ar 8142   4.025   3.275   3.775  0.0000  0.0000  0.0000
    11DUM    Ar 8143  -0.175   3.425   3.625  0.0000  0.0000  0.0000
    11DUM    Ar 8144  -0.025   3.575   3.625  0.0000  0.0000  0.0000
    11DUM    Ar 8145  -0.025   3.425   3.775  0.0000  0.0000  0.0000
    11DUM    Ar 8146  -0.175   3.575   3.775  0.0000  0.0000  0.0000
    11DUM    Ar 8147   0.125   3.425   3.625  0.0000  0.0000  0.0000
    11DUM    Ar 8148   0.275   3.575   3.625  0.0000  0.0000  0.0000
    11DUM    Ar 8149   0.275   3.425   3.775  0.0000  0.0000  0.0000
    11DUM    Ar 8150   0.125   3.575   3.775  0.0000  0.0000  0.0000
    11DUM    Ar 8151   0.425   3.425   3.625  0.0000  0.0000  0.0000
    11DUM    Ar 8152   0.575   3.575   3.625  0.0000  0.0000  0.0000
    11DUM    Ar 8153   0.425   3.575   3.775  0.0000  0.0000  0.0000
    11DUM    Ar 8154   0.725   3.575   3.775  0.0000  0.0000  0.0000
    11DUM    Ar 8155   1.475   3.575   3.625  0.0000  0.0000  0.0000
    11DUM    Ar 8156   1.475   3.425   3.775  0.0000  0.0000  0.0000
    11DUM    Ar 8157   1.325   3.575   3.775  0.0000  0.0000  0.0000
    11DUM    Ar 8158   1.625   3.425   3.625  0.0000  0.0000  0.0000
    11DUM    Ar 8159   1.775   3.575   3.625  0.0000  0.0000  0.0000
    11DUM    Ar 8160   1.775   3.425   3.775  0.0000  0.0000  0.0000
    11DUM    Ar 8161   1.625   3.575   3.775  0.0000  0.0000  0.0000
    11DUM    Ar 8162   1.925   3.425   3.625  0.0000  0.0000  0.0000
    11DUM    Ar 8163   2.075   3.575   3.625  0.0000  0.0000  0.0000
    11DUM    Ar 8164   2.075   3.425   3.775  0.0000  0.0000  0.0000
    11DUM    Ar 8165   1.925   3.575   3.775  0.0000  0.0000  0.0000
    11DUM    Ar 8166   2.225   3.425   3.625  0.0000  0.0000  0.0000
    11DUM    Ar 8167   2.375   3.575   3.625  0.0000  0.0000  0.0000
    11DUM    Ar 8168   2.375   3.425   3.775  0.0000  0.0000  0.0000
    11DUM    Ar 8169   2.225   3.575   3.775  0.0000  0.0000  0.0000
    11DUM    Ar 8170   2.525   3.425   3.625  0.0000  0.0000  0.0000
    11DUM    Ar 8171   2.675   3.575   3.625  0.0000  0.0000  0.0000
    11DUM    Ar 8172   2.525   3.575   3.775  0.0000  0.0000  0.0000
    11DUM    Ar 8173   3.275   3.575   3.625  0.0000  0.0000  0.0000
    11DUM    Ar 8174   3.575   3.575   3.625  0.0000  0.0000  0.0000
    11DUM    Ar 8175   3.575   3.425   3.775  0.0000  0.0000  0.0000
    11DUM    Ar 8176   3.425   3.575   3.775  0.0000  0.0000  0.0000
    11DUM    Ar 8177   3.725   3.425   3.625  0.0000  0.0000  0.0000
    11DUM    Ar 8178   3.875   3.575   3.625  0.0000  0.0000  0.0000
    11DUM    Ar 8179   3.875   3.425   3.775  0.0000  0.0000  0.0000
    11DUM    Ar 8180   3.725   3.575   3.775  0.0000  0.0000  0.0000
    11DUM    Ar 8181   4.025   3.425   3.625  0.0000  0.0000  0.0000
    11DUM    Ar 8182   4.175   3.575   3.625  0.0000  0.0000  0.0000
    11DUM    Ar 8183   4.175   3.425   3.775  0.0000  0.0000  0.0000
    11DUM    Ar 8184   4.025   3.575   3.775  0.0000  0.0000  0.0000
    11DUM    Ar 8185  -0.175   3.725   3.625  0.0000  0.0000  0.0000
    11DUM    Ar 8186  -0.025   3.875   3.625  0.0000  0.0000  0.0000
    11DUM    Ar 8187  -0.025   3.725   3.775  0.0000  0.0000  0.0000
    11DUM    Ar 8188  -0.175   3.875   3.775  0.0000  0.0000  0.0000
    11DUM    Ar 8189   0.125   3.725   3.625  0.0000  0.0000  0.0000
    11DUM    Ar 8190   0.275   3.875   3.625  0.0000  0.0000  0.0000
    11DUM    Ar 8191   0.275   3.725   3.775  0.0000  0.0000  0.0000
    11DUM    Ar 8192   0.125   3.875   3.775  0.0000  0.0000  0.0000
    11DUM    Ar 8193   0.425   3.725   3.625  0.0000  0.0000  0.0000
    11DUM    Ar 8194   0.575   3.875   3.625  0.0000  0.0000  0.0000
    11DUM    Ar 8195   0.575   3.725   3.775  0.0000  0.0000  0.0000
    11DUM    Ar 8196   0.425   3.875   3.775  0.0000  0.0000  0.0000
    11DUM    Ar 8197   0.725   3.725   3.625  0.0000  0.0000  0.0000
    11DUM    Ar 8198   0.875   3.875   3.625  0.0000  0.0000  0.0000
    11DUM    Ar 8199   0.875   3.725   3.775  0.0000  0.0000  0.0000
    11DUM    Ar 8200   0.725   3.875   3.775  0.0000  0.0000  0.0000
    11DUM    Ar 8201   1.025   3.725   3.625  0.0000  0.0000  0.0000
    11DUM    Ar 8202   1.175   3.875   3.625  0.0000  0.0000  0.0000
    11DUM    Ar 8203   1.175   3.725   3.775  0.0000  0.0000  0.0000
    11DUM    Ar 8204   1.025   3.875   3.775  0.0000  0.0000  0.0000
    11DUM    Ar 8205   1.325   3.725   3.625  0.0000  0.0000  0.0000
    11DUM    Ar 8206   1.475   3.875   3.625  0.0000  0.0000  0.0000
    11DUM    Ar 8207   1.475   3.725   3.775  0.0000  0.0000  0.0000
    11DUM    Ar 8208   1.325   3.875   3.775  0.0000  0.0000  0.0000
    11DUM    Ar 8209   1.625   3.725   3.625  0.0000  0.0000  0.0000
    11DUM    Ar 8210   1.775   3.875   3.625  0.0000  0.0000  0.0000
    11DUM    Ar 8211   1.775   3.725   3.775  0.0000  0.0000  0.0000
    11DUM    Ar 8212   1.625   3.875   3.775  0.0000  0.0000  0.0000
    11DUM    Ar 8213   1.925   3.725   3.625  0.0000  0.0000  0.0000
    11DUM    Ar 8214   2.075   3.875   3.625  0.0000  0.0000  0.0000
    11DUM    Ar 8215   2.075   3.725   3.775  0.0000  0.0000  0.0000
    11DUM    Ar 8216   1.925   3.875   3.775  0.0000  0.0000  0.0000
    11DUM    Ar 8217   2.225   3.725   3.625  0.0000  0.0000  0.0000
    11DUM    Ar 8218   2.375   3.875   3.625  0.0000  0.0000  0.0000
    11DUM    Ar 8219   2.375   3.725   3.775  0.0000  0.0000  0.0000
    11DUM    Ar 8220   2.225   3.875   3.775  0.0000  0.0000  0.0000
    11DUM    Ar 8221   2.525   3.725   3.625  0.0000  0.0000  0.0000
    11DUM    Ar 8222   2.675   3.875   3.625  0.0000  0.0000  0.0000
    11DUM    Ar 8223   2.675   3.725   3.775  0.0000  0.0000  0.0000
    11DUM    Ar 8224   2.525   3.875   3.775  0.0000  0.0000  0.0000
    11DUM    Ar 8225   2.825   3.725   3.625  0.0000  0.0000  0.0000
    11DUM    Ar 8226   2.975   3.875   3.625  0.0000  0.0000  0.0000
    11DUM    Ar 8227   2.975   3.725   3.775  0.0000  0.0000  0.0000
    11DUM    Ar 8228   2.825   3.875   3.775  0.0000  0.0000  0.0000
    11DUM    Ar 8229   3.125   3.725   3.625  0.0000  0.0000  0.0000
    11DUM    Ar 8230   3.275   3.875   3.625  0.0000  0.0000  0.0000
    11DUM    Ar 8231   3.275   3.725   3.775  0.0000  0.0000  0.0000
    11DUM    Ar 8232   3.125   3.875   3.775  0.0000  0.0000  0.0000
    11DUM    Ar 8233   3.425   3.725   3.625  0.0000  0.0000  0.0000
    11DUM    Ar 8234   3.575   3.875   3.625  0.0000  0.0000  0.0000
    11DUM    Ar 8235   3.575   3.725   3.775  0.0000  0.0000  0.0000
    11DUM    Ar 8236   3.425   3.875   3.775  0.0000  0.0000  0.0000
    11DUM    Ar 8237   3.725   3.725   3.625  0.0000  0.0000  0.0000
    11DUM    Ar 8238   3.875   3.875   3.625  0.0000  0.0000  0.0000
    11DUM    Ar 8239   3.875   3.725   3.775  0.0000  0.0000  0.0000
    11DUM    Ar 8240   3.725   3.875   3.775  0.0000  0.0000  0.0000
    11DUM    Ar 8241   4.025   3.725   3.625  0.0000  0.0000  0.0000
    11DUM    Ar 8242   4.175   3.875   3.625  0.0000  0.0000  0.0000
    11DUM    Ar 8243   4.175   3.725   3.775  0.0000  0.0000  0.0000
    11DUM    Ar 8244   4.025   3.875   3.775  0.0000  0.0000  0.0000
    11DUM    Ar 8245  -0.175   4.025   3.625  0.0000  0.0000  0.0000
    11DUM    Ar 8246  -0.025   4.175   3.625  0.0000  0.0000  0.0000
    11DUM    Ar 8247  -0.025   4.025   3.775  0.0000  0.0000  0.0000
    11DUM    Ar 8248  -0.175   4.175   3.775  0.0000  0.0000  0.0000
    11DUM    Ar 8249   0.125   4.025   3.625  0.0000  0.0000  0.0000
    11DUM    Ar 8250   0.275   4.175   3.625  0.0000  0.0000  0.0000
    11DUM    Ar 8251   0.275   4.025   3.775  0.0000  0.0000  0.0000
    11DUM    Ar 8252   0.125   4.175   3.775  0.0000  0.0000  0.0000
    11DUM    Ar 8253   0.425   4.025   3.625  0.0000  0.0000  0.0000
    11DUM    Ar 8254   0.575   4.175   3.625  0.0000  0.0000  0.0000
    11DUM    Ar 8255   0.575   4.025   3.775  0.0000  0.0000  0.0000
    11DUM    Ar 8256   0.425   4.175   3.775  0.0000  0.0000  0.0000
    11DUM    Ar 8257   0.725   4.025   3.625  0.0000  0.0000  0.0000
    11DUM    Ar 8258   0.875   4.175   3.625  0.0000  0.0000  0.0000
    11DUM    Ar 8259   0.875   4.025   3.775  0.0000  0.0000  0.0000
    11DUM    Ar 8260   0.725   4.175   3.775  0.0000  0.0000  0.0000
    11DUM    Ar 8261   1.025   4.025   3.625  0.0000  0.0000  0.0000
    11DUM    Ar 8262   1.175   4.175   3.625  0.0000  0.0000  0.0000
    11DUM    Ar 8263   1.175   4.025   3.775  0.0000  0.0000  0.0000
    11DUM    Ar 8264   1.025   4.175   3.775  0.0000  0.0000  0.0000
    11DUM    Ar 8265   1.325   4.025   3.625  0.0000  0.0000  0.0000
    11DUM    Ar 8266   1.475   4.175   3.625  0.0000  0.0000  0.0000
    11DUM    Ar 8267   1.475   4.025   3.775  0.0000  0.0000  0.0000
    11DUM    Ar 8268   1.325   4.175   3.775  0.0000  0.0000  0.0000
    11DUM    Ar 8269   1.625   4.025   3.625  0.0000  0.0000  0.0000
    11DUM    Ar 8270   1.775   4.175   3.625  0.0000  0.0000  0.0000
    11DUM    Ar 8271   1.775   4.025   3.775  0.0000  0.0000  0.0000
    11DUM    Ar 8272   1.625   4.175   3.775  0.0000  0.0000  0.0000
    11DUM    Ar 8273   1.925   4.025   3.625  0.0000  0.0000  0.0000
    11DUM    Ar 8274   2.075   4.175   3.625  0.0000  0.0000  0.0000
    11DUM    Ar 8275   2.075   4.025   3.775  0.0000  0.0000  0.0000
    11DUM    Ar 8276   1.925   4.175   3.775  0.0000  0.0000  0.0000
    11DUM    Ar 8277   2.225   4.025   3.625  0.0000  0.0000  0.0000
    11DUM    Ar 8278   2.375   4.175   3.625  0.0000  0.0000  0.0000
    11DUM    Ar 8279   2.375   4.025   3.775  0.0000  0.0000  0.0000
    11DUM    Ar 8280   2.225   4.175   3.775  0.0000  0.0000  0.0000
    11DUM    Ar 8281   2.525   4.025   3.625  0.0000  0.0000  0.0000
    11DUM    Ar 8282   2.675   4.175   3.625  0.0000  0.0000  0.0000
    11DUM    Ar 8283   2.675   4.025   3.775  0.0000  0.0000  0.0000
    11DUM    Ar 8284   2.525   4.175   3.775  0.0000  0.0000  0.0000
    11DUM    Ar 8285   2.825   4.025   3.625  0.0000  0.0000  0.0000
    11DUM    Ar 8286   2.975   4.175   3.625  0.0000  0.0000  0.0000
    11DUM    Ar 8287   2.975   4.025   3.775  0.0000  0.0000  0.0000
    11DUM    Ar 8288   2.825   4.175   3.775  0.0000  0.0000  0.0000
    11DUM    Ar 8289   3.125   4.025   3.625  0.0000  0.0000  0.0000
    11DUM    Ar 8290   3.275   4.175   3.625  0.0000  0.0000  0.0000
    11DUM    Ar 8291   3.275   4.025   3.775  0.0000  0.0000  0.0000
    11DUM    Ar 8292   3.125   4.175   3.775  0.0000  0.0000  0.0000
    11DUM    Ar 8293   3.425   4.025   3.625  0.0000  0.0000  0.0000
    11DUM    Ar 8294   3.575   4.175   3.625  0.0000  0.0000  0.0000
    11DUM    Ar 8295   3.575   4.025   3.775  0.0000  0.0000  0.0000
    11DUM    Ar 8296   3.425   4.175   3.775  0.0000  0.0000  0.0000
    11DUM    Ar 8297   3.725   4.025   3.625  0.0000  0.0000  0.0000
    11DUM    Ar 8298   3.875   4.175   3.625  0.0000  0.0000  0.0000
    11DUM    Ar 8299   3.875   4.025   3.775  0.0000  0.0000  0.0000
    11DUM    Ar 8300   3.725   4.175   3.775  0.0000  0.0000  0.0000
    11DUM    Ar 8301   4.025   4.025   3.625  0.0000  0.0000  0.0000
    11DUM    Ar 8302   4.175   4.175   3.625  0.0000  0.0000  0.0000
    11DUM    Ar 8303   4.175   4.025   3.775  0.0000  0.0000  0.0000
    11DUM    Ar 8304   4.025   4.175   3.775  0.0000  0.0000  0.0000
    11DUM    Ar 8305  -0.175  -0.175   3.925  0.0000  0.0000  0.0000
    11DUM    Ar 8306  -0.025  -0.025   3.925  0.0000  0.0000  0.0000
    11DUM    Ar 8307  -0.025  -0.175   4.075  0.0000  0.0000  0.0000
    11DUM    Ar 8308  -0.175  -0.025   4.075  0.0000  0.0000  0.0000
    11DUM    Ar 8309   0.125  -0.175   3.925  0.0000  0.0000  0.0000
    11DUM    Ar 8310   0.275  -0.025   3.925  0.0000  0.0000  0.0000
    11DUM    Ar 8311   0.275  -0.175   4.075  0.0000  0.0000  0.0000
    11DUM    Ar 8312   0.125  -0.025   4.075  0.0000  0.0000  0.0000
    11DUM    Ar 8313   0.425  -0.175   3.925  0.0000  0.0000  0.0000
    11DUM    Ar 8314   0.575  -0.025   3.925  0.0000  0.0000  0.0000
    11DUM    Ar 8315   0.575  -0.175   4.075  0.0000  0.0000  0.0000
    11DUM    Ar 8316   0.425  -0.025   4.075  0.0000  0.0000  0.0000
    11DUM    Ar 8317   0.725  -0.175   3.925  0.0000  0.0000  0.0000
    11DUM    Ar 8318   0.875  -0.025   3.925  0.0000  0.0000  0.0000
    11DUM    Ar 8319   0.875  -0.175   4.075  0.0000  0.0000  0.0000
    11DUM    Ar 8320   0.725  -0.025   4.075  0.0000  0.0000  0.0000
    11DUM    Ar 8321   1.025  -0.175   3.925  0.0000  0.0000  0.0000
    11DUM    Ar 8322   1.175  -0.025   3.925  0.0000  0.0000  0.0000
    11DUM    Ar 8323   1.175  -0.175   4.075  0.0000  0.0000  0.0000
    11DUM    Ar 8324   1.025  -0.025   4.075  0.0000  0.0000  0.0000
    11DUM    Ar 8325   1.325  -0.175   3.925  0.0000  0.0000  0.0000
    11DUM    Ar 8326   1.475  -0.025   3.925  0.0000  0.0000  0.0000
    11DUM    Ar 8327   1.475  -0.175   4.075  0.0000  0.0000  0.0000
    11DUM    Ar 8328   1.325  -0.025   4.075  0.0000  0.0000  0.0000
    11DUM    Ar 8329   1.625  -0.175   3.925  0.0000  0.0000  0.0000
    11DUM    Ar 8330   1.775  -0.025   3.925  0.0000  0.0000  0.0000
    11DUM    Ar 8331   1.775  -0.175   4.075  0.0000  0.0000  0.0000
    11DUM    Ar 8332   1.625  -0.025   4.075  0.0000  0.0000  0.0000
    11DUM    Ar 8333   1.925  -0.175   3.925  0.0000  0.0000  0.0000
    11DUM    Ar 8334   2.075  -0.025   3.925  0.0000  0.0000  0.0000
    11DUM    Ar 8335   2.075  -0.175   4.075  0.0000  0.0000  0.0000
    11DUM    Ar 8336   1.925  -0.025   4.075  0.0000  0.0000  0.0000
    11DUM    Ar 8337   2.225  -0.175   3.925  0.0000  0.0000  0.0000
    11DUM    Ar 8338   2.375  -0.025   3.925  0.0000  0.0000  0.0000
    11DUM    Ar 8339   2.375  -0.175   4.075  0.0000  0.0000  0.0000
    11DUM    Ar 8340   2.225  -0.025   4.075  0.0000  0.0000  0.0000
    11DUM    Ar 8341   2.525  -0.175   3.925  0.0000  0.0000  0.0000
    11DUM    Ar 8342   2.675  -0.025   3.925  0.0000  0.0000  0.0000
    11DUM    Ar 8343   2.675  -0.175   4.075  0.0000  0.0000  0.0000
    11DUM    Ar 8344   2.525  -0.025   4.075  0.0000  0.0000  0.0000
    11DUM    Ar 8345   2.825  -0.175   3.925  0.0000  0.0000  0.0000
    11DUM    Ar 8346   2.975  -0.025   3.925  0.0000  0.0000  0.0000
    11DUM    Ar 8347   2.975  -0.175   4.075  0.0000  0.0000  0.0000
    11DUM    Ar 8348   2.825  -0.025   4.075  0.0000  0.0000  0.0000
    11DUM    Ar 8349   3.125  -0.175   3.925  0.0000  0.0000  0.0000
    11DUM    Ar 8350   3.275  -0.025   3.925  0.0000  0.0000  0.0000
    11DUM    Ar 8351   3.275  -0.175   4.075  0.0000  0.0000  0.0000
    11DUM    Ar 8352   3.125  -0.025   4.075  0.0000  0.0000  0.0000
    11DUM    Ar 8353   3.425  -0.175   3.925  0.0000  0.0000  0.0000
    11DUM    Ar 8354   3.575  -0.025   3.925  0.0000  0.0000  0.0000
    11DUM    Ar 8355   3.575  -0.175   4.075  0.0000  0.0000  0.0000
    11DUM    Ar 8356   3.425  -0.025   4.075  0.0000  0.0000  0.0000
    11DUM    Ar 8357   3.725  -0.175   3.925  0.0000  0.0000  0.0000
    11DUM    Ar 8358   3.875  -0.025   3.925  0.0000  0.0000  0.0000
    11DUM    Ar 8359   3.875  -0.175   4.075  0.0000  0.0000  0.0000
    11DUM    Ar 8360   3.725  -0.025   4.075  0.0000  0.0000  0.0000
    11DUM    Ar 8361   4.025  -0.175   3.925  0.0000  0.0000  0.0000
    11DUM    Ar 8362   4.175  -0.025   3.925  0.0000  0.0000  0.0000
    11DUM    Ar 8363   4.175  -0.175   4.075  0.0000  0.0000  0.0000
    11DUM    Ar 8364   4.025  -0.025   4.075  0.0000  0.0000  0.0000
    11DUM    Ar 8365  -0.175   0.125   3.925  0.0000  0.0000  0.0000
    11DUM    Ar 8366  -0.025   0.275   3.925  0.0000  0.0000  0.0000
    11DUM    Ar 8367  -0.025   0.125   4.075  0.0000  0.0000  0.0000
    11DUM    Ar 8368  -0.175   0.275   4.075  0.0000  0.0000  0.0000
    11DUM    Ar 8369   0.125   0.125   3.925  0.0000  0.0000  0.0000
    11DUM    Ar 8370   0.275   0.275   3.925  0.0000  0.0000  0.0000
    11DUM    Ar 8371   0.275   0.125   4.075  0.0000  0.0000  0.0000
    11DUM    Ar 8372   0.125   0.275   4.075  0.0000  0.0000  0.0000
    11DUM    Ar 8373   0.425   0.125   3.925  0.0000  0.0000  0.0000
    11DUM    Ar 8374   0.575   0.275   3.925  0.0000  0.0000  0.0000
    11DUM    Ar 8375   0.575   0.125   4.075  0.0000  0.0000  0.0000
    11DUM    Ar 8376   0.425   0.275   4.075  0.0000  0.0000  0.0000
    11DUM    Ar 8377   0.725   0.125   3.925  0.0000  0.0000  0.0000
    11DUM    Ar 8378   0.875   0.275   3.925  0.0000  0.0000  0.0000
    11DUM    Ar 8379   0.875   0.125   4.075  0.0000  0.0000  0.0000
    11DUM    Ar 8380   0.725   0.275   4.075  0.0000  0.0000  0.0000
    11DUM    Ar 8381   1.025   0.125   3.925  0.0000  0.0000  0.0000
    11DUM    Ar 8382   1.175   0.275   3.925  0.0000  0.0000  0.0000
    11DUM    Ar 8383   1.175   0.125   4.075  0.0000  0.0000  0.0000
    11DUM    Ar 8384   1.025   0.275   4.075  0.0000  0.0000  0.0000
    11DUM    Ar 8385   1.325   0.125   3.925  0.0000  0.0000  0.0000
    11DUM    Ar 8386   1.475   0.275   3.925  0.0000  0.0000  0.0000
    11DUM    Ar 8387   1.475   0.125   4.075  0.0000  0.0000  0.0000
    11DUM    Ar 8388   1.325   0.275   4.075  0.0000  0.0000  0.0000
    11DUM    Ar 8389   1.625   0.125   3.925  0.0000  0.0000  0.0000
    11DUM    Ar 8390   1.775   0.275   3.925  0.0000  0.0000  0.0000
    11DUM    Ar 8391   1.775   0.125   4.075  0.0000  0.0000  0.0000
    11DUM    Ar 8392   1.625   0.275   4.075  0.0000  0.0000  0.0000
    11DUM    Ar 8393   1.925   0.125   3.925  0.0000  0.0000  0.0000
    11DUM    Ar 8394   2.075   0.275   3.925  0.0000  0.0000  0.0000
    11DUM    Ar 8395   2.075   0.125   4.075  0.0000  0.0000  0.0000
    11DUM    Ar 8396   1.925   0.275   4.075  0.0000  0.0000  0.0000
    11DUM    Ar 8397   2.225   0.125   3.925  0.0000  0.0000  0.0000
    11DUM    Ar 8398   2.375   0.275   3.925  0.0000  0.0000  0.0000
    11DUM    Ar 8399   2.375   0.125   4.075  0.0000  0.0000  0.0000
    11DUM    Ar 8400   2.225   0.275   4.075  0.0000  0.0000  0.0000
    11DUM    Ar 8401   2.525   0.125   3.925  0.0000  0.0000  0.0000
    11DUM    Ar 8402   2.675   0.275   3.925  0.0000  0.0000  0.0000
    11DUM    Ar 8403   2.675   0.125   4.075  0.0000  0.0000  0.0000
    11DUM    Ar 8404   2.525   0.275   4.075  0.0000  0.0000  0.0000
    11DUM    Ar 8405   2.825   0.125   3.925  0.0000  0.0000  0.0000
    11DUM    Ar 8406   2.975   0.275   3.925  0.0000  0.0000  0.0000
    11DUM    Ar 8407   2.975   0.125   4.075  0.0000  0.0000  0.0000
    11DUM    Ar 8408   2.825   0.275   4.075  0.0000  0.0000  0.0000
    11DUM    Ar 8409   3.125   0.125   3.925  0.0000  0.0000  0.0000
    11DUM    Ar 8410   3.275   0.275   3.925  0.0000  0.0000  0.0000
    11DUM    Ar 8411   3.275   0.125   4.075  0.0000  0.0000  0.0000
    11DUM    Ar 8412   3.125   0.275   4.075  0.0000  0.0000  0.0000
    11DUM    Ar 8413   3.425   0.125   3.925  0.0000  0.0000  0.0000
    11DUM    Ar 8414   3.575   0.275   3.925  0.0000  0.0000  0.0000
    11DUM    Ar 8415   3.575   0.125   4.075  0.0000  0.0000  0.0000
    11DUM    Ar 8416   3.425   0.275   4.075  0.0000  0.0000  0.0000
    11DUM    Ar 8417   3.725   0.125   3.925  0.0000  0.0000  0.0000
    11DUM    Ar 8418   3.875   0.275   3.925  0.0000  0.0000  0.0000
    11DUM    Ar 8419   3.875   0.125   4.075  0.0000  0.0000  0.0000
    11DUM    Ar 8420   3.725   0.275   4.075  0.0000  0.0000  0.0000
    11DUM    Ar 8421   4.025   0.125   3.925  0.0000  0.0000  0.0000
    11DUM    Ar 8422   4.175   0.275   3.925  0.0000  0.0000  0.0000
    11DUM    Ar 8423   4.175   0.125   4.075  0.0000  0.0000  0.0000
    11DUM    Ar 8424   4.025   0.275   4.075  0.0000  0.0000  0.0000
    11DUM    Ar 8425  -0.175   0.425   3.925  0.0000  0.0000  0.0000
    11DUM    Ar 8426  -0.025   0.575   3.925  0.0000  0.0000  0.0000
    11DUM    Ar 8427  -0.025   0.425   4.075  0.0000  0.0000  0.0000
    11DUM    Ar 8428  -0.175   0.575   4.075  0.0000  0.0000  0.0000
    11DUM    Ar 8429   0.125   0.425   3.925  0.0000  0.0000  0.0000
    11DUM    Ar 8430   0.275   0.575   3.925  0.0000  0.0000  0.0000
    11DUM    Ar 8431   0.275   0.425   4.075  0.0000  0.0000  0.0000
    11DUM    Ar 8432   0.125   0.575   4.075  0.0000  0.0000  0.0000
    11DUM    Ar 8433   0.425   0.425   3.925  0.0000  0.0000  0.0000
    11DUM    Ar 8434   0.575   0.425   4.075  0.0000  0.0000  0.0000
    11DUM    Ar 8435   0.425   0.575   4.075  0.0000  0.0000  0.0000
    11DUM    Ar 8436   0.725   0.425   3.925  0.0000  0.0000  0.0000
    11DUM    Ar 8437   1.325   0.425   3.925  0.0000  0.0000  0.0000
    11DUM    Ar 8438   1.475   0.575   3.925  0.0000  0.0000  0.0000
    11DUM    Ar 8439   1.475   0.425   4.075  0.0000  0.0000  0.0000
    11DUM    Ar 8440   1.625   0.425   3.925  0.0000  0.0000  0.0000
    11DUM    Ar 8441   1.775   0.575   3.925  0.0000  0.0000  0.0000
    11DUM    Ar 8442   1.775   0.425   4.075  0.0000  0.0000  0.0000
    11DUM    Ar 8443   1.625   0.575   4.075  0.0000  0.0000  0.0000
    11DUM    Ar 8444   1.925   0.425   3.925  0.0000  0.0000  0.0000
    11DUM    Ar 8445   2.075   0.575   3.925  0.0000  0.0000  0.0000
    11DUM    Ar 8446   2.075   0.425   4.075  0.0000  0.0000  0.0000
    11DUM    Ar 8447   1.925   0.575   4.075  0.0000  0.0000  0.0000
    11DUM    Ar 8448   2.225   0.425   3.925  0.0000  0.0000  0.0000
    11DUM    Ar 8449   2.375   0.575   3.925  0.0000  0.0000  0.0000
    11DUM    Ar 8450   2.375   0.425   4.075  0.0000  0.0000  0.0000
    11DUM    Ar 8451   2.225   0.575   4.075  0.0000  0.0000  0.0000
    11DUM    Ar 8452   2.525   0.425   3.925  0.0000  0.0000  0.0000
    11DUM    Ar 8453   2.675   0.425   4.075  0.0000  0.0000  0.0000
    11DUM    Ar 8454   2.525   0.575   4.075  0.0000  0.0000  0.0000
    11DUM    Ar 8455   3.275   0.425   4.075  0.0000  0.0000  0.0000
    11DUM    Ar 8456   3.425   0.425   3.925  0.0000  0.0000  0.0000
    11DUM    Ar 8457   3.575   0.575   3.925  0.0000  0.0000  0.0000
    11DUM    Ar 8458   3.575   0.425   4.075  0.0000  0.0000  0.0000
    11DUM    Ar 8459   3.725   0.425   3.925  0.0000  0.0000  0.0000
    11DUM    Ar 8460   3.875   0.575   3.925  0.0000  0.0000  0.0000
    11DUM    Ar 8461   3.875   0.425   4.075  0.0000  0.0000  0.0000
    11DUM    Ar 8462   3.725   0.575   4.075  0.0000  0.0000  0.0000
    11DUM    Ar 8463   4.025   0.425   3.925  0.0000  0.0000  0.0000
    11DUM    Ar 8464   4.175   0.575   3.925  0.0000  0.0000  0.0000
    11DUM    Ar 8465   4.175   0.425   4.075  0.0000  0.0000  0.0000
    11DUM    Ar 8466   4.025   0.575   4.075  0.0000  0.0000  0.0000
    11DUM    Ar 8467  -0.175   0.725   3.925  0.0000  0.0000  0.0000
    11DUM    Ar 8468  -0.025   0.875   3.925  0.0000  0.0000  0.0000
    11DUM    Ar 8469  -0.025   0.725   4.075  0.0000  0.0000  0.0000
    11DUM    Ar 8470  -0.175   0.875   4.075  0.0000  0.0000  0.0000
    11DUM    Ar 8471   0.125   0.725   3.925  0.0000  0.0000  0.0000
    11DUM    Ar 8472   0.275   0.875   3.925  0.0000  0.0000  0.0000
    11DUM    Ar 8473   0.275   0.725   4.075  0.0000  0.0000  0.0000
    11DUM    Ar 8474   0.125   0.875   4.075  0.0000  0.0000  0.0000
    11DUM    Ar 8475   0.425   0.725   3.925  0.0000  0.0000  0.0000
    11DUM    Ar 8476   1.625   0.725   3.925  0.0000  0.0000  0.0000
    11DUM    Ar 8477   1.775   0.875   3.925  0.0000  0.0000  0.0000
    11DUM    Ar 8478   1.775   0.725   4.075  0.0000  0.0000  0.0000
    11DUM    Ar 8479   1.625   0.875   4.075  0.0000  0.0000  0.0000
    11DUM    Ar 8480   1.925   0.725   3.925  0.0000  0.0000  0.0000
    11DUM    Ar 8481   2.075   0.875   3.925  0.0000  0.0000  0.0000
    11DUM    Ar 8482   2.075   0.725   4.075  0.0000  0.0000  0.0000
    11DUM    Ar 8483   1.925   0.875   4.075  0.0000  0.0000  0.0000
    11DUM    Ar 8484   2.225   0.725   3.925  0.0000  0.0000  0.0000
    11DUM    Ar 8485   2.375   0.875   3.925  0.0000  0.0000  0.0000
    11DUM    Ar 8486   2.375   0.725   4.075  0.0000  0.0000  0.0000
    11DUM    Ar 8487   2.225   0.875   4.075  0.0000  0.0000  0.0000
    11DUM    Ar 8488   3.575   0.725   4.075  0.0000  0.0000  0.0000
    11DUM    Ar 8489   3.725   0.725   3.925  0.0000  0.0000  0.0000
    11DUM    Ar 8490   3.875   0.875   3.925  0.0000  0.0000  0.0000
    11DUM    Ar 8491   3.875   0.725   4.075  0.0000  0.0000  0.0000
    11DUM    Ar 8492   3.725   0.875   4.075  0.0000  0.0000  0.0000
    11DUM    Ar 8493   4.025   0.725   3.925  0.0000  0.0000  0.0000
    11DUM    Ar 8494   4.175   0.875   3.925  0.0000  0.0000  0.0000
    11DUM    Ar 8495   4.175   0.725   4.075  0.0000  0.0000  0.0000
    11DUM    Ar 8496   4.025   0.875   4.075  0.0000  0.0000  0.0000
    11DUM    Ar 8497  -0.175   1.025   3.925  0.0000  0.0000  0.0000
    11DUM    Ar 8498  -0.025   1.175   3.925  0.0000  0.0000  0.0000
    11DUM    Ar 8499  -0.025   1.025   4.075  0.0000  0.0000  0.0000
    11DUM    Ar 8500  -0.175   1.175   4.075  0.0000  0.0000  0.0000
    11DUM    Ar 8501   0.125   1.025   3.925  0.0000  0.0000  0.0000
    11DUM    Ar 8502   0.275   1.175   3.925  0.0000  0.0000  0.0000
    11DUM    Ar 8503   0.275   1.025   4.075  0.0000  0.0000  0.0000
    11DUM    Ar 8504   0.125   1.175   4.075  0.0000  0.0000  0.0000
    11DUM    Ar 8505   1.625   1.025   3.925  0.0000  0.0000  0.0000
    11DUM    Ar 8506   1.775   1.175   3.925  0.0000  0.0000  0.0000
    11DUM    Ar 8507   1.775   1.025   4.075  0.0000  0.0000  0.0000
    11DUM    Ar 8508   1.625   1.175   4.075  0.0000  0.0000  0.0000
    11DUM    Ar 8509   1.925   1.025   3.925  0.0000  0.0000  0.0000
    11DUM    Ar 8510   2.075   1.175   3.925  0.0000  0.0000  0.0000
    11DUM    Ar 8511   2.075   1.025   4.075  0.0000  0.0000  0.0000
    11DUM    Ar 8512   1.925   1.175   4.075  0.0000  0.0000  0.0000
    11DUM    Ar 8513   2.225   1.025   3.925  0.0000  0.0000  0.0000
    11DUM    Ar 8514   2.375   1.175   3.925  0.0000  0.0000  0.0000
    11DUM    Ar 8515   2.375   1.025   4.075  0.0000  0.0000  0.0000
    11DUM    Ar 8516   2.225   1.175   4.075  0.0000  0.0000  0.0000
    11DUM    Ar 8517   3.725   1.025   3.925  0.0000  0.0000  0.0000
    11DUM    Ar 8518   3.875   1.175   3.925  0.0000  0.0000  0.0000
    11DUM    Ar 8519   3.875   1.025   4.075  0.0000  0.0000  0.0000
    11DUM    Ar 8520   3.725   1.175   4.075  0.0000  0.0000  0.0000
    11DUM    Ar 8521   4.025   1.025   3.925  0.0000  0.0000  0.0000
    11DUM    Ar 8522   4.175   1.175   3.925  0.0000  0.0000  0.0000
    11DUM    Ar 8523   4.175   1.025   4.075  0.0000  0.0000  0.0000
    11DUM    Ar 8524   4.025   1.175   4.075  0.0000  0.0000  0.0000
    11DUM    Ar 8525  -0.175   1.325   3.925  0.0000  0.0000  0.0000
    11DUM    Ar 8526  -0.025   1.475   3.925  0.0000  0.0000  0.0000
    11DUM    Ar 8527  -0.025   1.325   4.075  0.0000  0.0000  0.0000
    11DUM    Ar 8528  -0.175   1.475   4.075  0.0000  0.0000  0.0000
    11DUM    Ar 8529   0.125   1.325   3.925  0.0000  0.0000  0.0000
    11DUM    Ar 8530   0.275   1.475   3.925  0.0000  0.0000  0.0000
    11DUM    Ar 8531   0.275   1.325   4.075  0.0000  0.0000  0.0000
    11DUM    Ar 8532   0.125   1.475   4.075  0.0000  0.0000  0.0000
    11DUM    Ar 8533   0.425   1.325   3.925  0.0000  0.0000  0.0000
    11DUM    Ar 8534   0.575   1.475   3.925  0.0000  0.0000  0.0000
    11DUM    Ar 8535   0.425   1.475   4.075  0.0000  0.0000  0.0000
    11DUM    Ar 8536   1.475   1.475   3.925  0.0000  0.0000  0.0000
    11DUM    Ar 8537   1.625   1.325   3.925  0.0000  0.0000  0.0000
    11DUM    Ar 8538   1.775   1.475   3.925  0.0000  0.0000  0.0000
    11DUM    Ar 8539   1.775   1.325   4.075  0.0000  0.0000  0.0000
    11DUM    Ar 8540   1.625   1.475   4.075  0.0000  0.0000  0.0000
    11DUM    Ar 8541   1.925   1.325   3.925  0.0000  0.0000  0.0000
    11DUM    Ar 8542   2.075   1.475   3.925  0.0000  0.0000  0.0000
    11DUM    Ar 8543   2.075   1.325   4.075  0.0000  0.0000  0.0000
    11DUM    Ar 8544   1.925   1.475   4.075  0.0000  0.0000  0.0000
    11DUM    Ar 8545   2.225   1.325   3.925  0.0000  0.0000  0.0000
    11DUM    Ar 8546   2.375   1.475   3.925  0.0000  0.0000  0.0000
    11DUM    Ar 8547   2.375   1.325   4.075  0.0000  0.0000  0.0000
    11DUM    Ar 8548   2.225   1.475   4.075  0.0000  0.0000  0.0000
    11DUM    Ar 8549   2.525   1.475   4.075  0.0000  0.0000  0.0000
    11DUM    Ar 8550   3.575   1.475   3.925  0.0000  0.0000  0.0000
    11DUM    Ar 8551   3.575   1.325   4.075  0.0000  0.0000  0.0000
    11DUM    Ar 8552   3.425   1.475   4.075  0.0000  0.0000  0.0000
    11DUM    Ar 8553   3.725   1.325   3.925  0.0000  0.0000  0.0000
    11DUM    Ar 8554   3.875   1.475   3.925  0.0000  0.0000  0.0000
    11DUM    Ar 8555   3.875   1.325   4.075  0.0000  0.0000  0.0000
    11DUM    Ar 8556   3.725   1.475   4.075  0.0000  0.0000  0.0000
    11DUM    Ar 8557   4.025   1.325   3.925  0.0000  0.0000  0.0000
    11DUM    Ar 8558   4.175   1.475   3.925  0.0000  0.0000  0.0000
    11DUM    Ar 8559   4.175   1.325   4.075  0.0000  0.0000  0.0000
    11DUM    Ar 8560   4.025   1.475   4.075  0.0000  0.0000  0.0000
    11DUM    Ar 8561  -0.175   1.625   3.925  0.0000  0.0000  0.0000
    11DUM    Ar 8562  -0.025   1.775   3.925  0.0000  0.0000  0.0000
    11DUM    Ar 8563  -0.025   1.625   4.075  0.0000  0.0000  0.0000
    11DUM    Ar 8564  -0.175   1.775   4.075  0.0000  0.0000  0.0000
    11DUM    Ar 8565   0.125   1.625   3.925  0.0000  0.0000  0.0000
    11DUM    Ar 8566   0.275   1.775   3.925  0.0000  0.0000  0.0000
    11DUM    Ar 8567   0.275   1.625   4.075  0.0000  0.0000  0.0000
    11DUM    Ar 8568   0.125   1.775   4.075  0.0000  0.0000  0.0000
    11DUM    Ar 8569   0.425   1.625   3.925  0.0000  0.0000  0.0000
    11DUM    Ar 8570   0.575   1.775   3.925  0.0000  0.0000  0.0000
    11DUM    Ar 8571   0.575   1.625   4.075  0.0000  0.0000  0.0000
    11DUM    Ar 8572   0.425   1.775   4.075  0.0000  0.0000  0.0000
    11DUM    Ar 8573   0.725   1.625   3.925  0.0000  0.0000  0.0000
    11DUM    Ar 8574   0.875   1.775   3.925  0.0000  0.0000  0.0000
    11DUM    Ar 8575   0.875   1.625   4.075  0.0000  0.0000  0.0000
    11DUM    Ar 8576   0.725   1.775   4.075  0.0000  0.0000  0.0000
    11DUM    Ar 8577   1.025   1.625   3.925  0.0000  0.0000  0.0000
    11DUM    Ar 8578   1.175   1.775   3.925  0.0000  0.0000  0.0000
    11DUM    Ar 8579   1.175   1.625   4.075  0.0000  0.0000  0.0000
    11DUM    Ar 8580   1.025   1.775   4.075  0.0000  0.0000  0.0000
    11DUM    Ar 8581   1.325   1.625   3.925  0.0000  0.0000  0.0000
    11DUM    Ar 8582   1.475   1.775   3.925  0.0000  0.0000  0.0000
    11DUM    Ar 8583   1.475   1.625   4.075  0.0000  0.0000  0.0000
    11DUM    Ar 8584   1.325   1.775   4.075  0.0000  0.0000  0.0000
    11DUM    Ar 8585   1.625   1.625   3.925  0.0000  0.0000  0.0000
    11DUM    Ar 8586   1.775   1.775   3.925  0.0000  0.0000  0.0000
    11DUM    Ar 8587   1.775   1.625   4.075  0.0000  0.0000  0.0000
    11DUM    Ar 8588   1.625   1.775   4.075  0.0000  0.0000  0.0000
    11DUM    Ar 8589   1.925   1.625   3.925  0.0000  0.0000  0.0000
    11DUM    Ar 8590   2.075   1.775   3.925  0.0000  0.0000  0.0000
    11DUM    Ar 8591   2.075   1.625   4.075  0.0000  0.0000  0.0000
    11DUM    Ar 8592   1.925   1.775   4.075  0.0000  0.0000  0.0000
    11DUM    Ar 8593   2.225   1.625   3.925  0.0000  0.0000  0.0000
    11DUM    Ar 8594   2.375   1.775   3.925  0.0000  0.0000  0.0000
    11DUM    Ar 8595   2.375   1.625   4.075  0.0000  0.0000  0.0000
    11DUM    Ar 8596   2.225   1.775   4.075  0.0000  0.0000  0.0000
    11DUM    Ar 8597   2.525   1.625   3.925  0.0000  0.0000  0.0000
    11DUM    Ar 8598   2.675   1.775   3.925  0.0000  0.0000  0.0000
    11DUM    Ar 8599   2.675   1.625   4.075  0.0000  0.0000  0.0000
    11DUM    Ar 8600   2.525   1.775   4.075  0.0000  0.0000  0.0000
    11DUM    Ar 8601   2.825   1.625   3.925  0.0000  0.0000  0.0000
    11DUM    Ar 8602   2.975   1.775   3.925  0.0000  0.0000  0.0000
    11DUM    Ar 8603   2.975   1.625   4.075  0.0000  0.0000  0.0000
    11DUM    Ar 8604   2.825   1.775   4.075  0.0000  0.0000  0.0000
    11DUM    Ar 8605   3.125   1.625   3.925  0.0000  0.0000  0.0000
    11DUM    Ar 8606   3.275   1.775   3.925  0.0000  0.0000  0.0000
    11DUM    Ar 8607   3.275   1.625   4.075  0.0000  0.0000  0.0000
    11DUM    Ar 8608   3.125   1.775   4.075  0.0000  0.0000  0.0000
    11DUM    Ar 8609   3.425   1.625   3.925  0.0000  0.0000  0.0000
    11DUM    Ar 8610   3.575   1.775   3.925  0.0000  0.0000  0.0000
    11DUM    Ar 8611   3.575   1.625   4.075  0.0000  0.0000  0.0000
    11DUM    Ar 8612   3.425   1.775   4.075  0.0000  0.0000  0.0000
    11DUM    Ar 8613   3.725   1.625   3.925  0.0000  0.0000  0.0000
    11DUM    Ar 8614   3.875   1.775   3.925  0.0000  0.0000  0.0000
    11DUM    Ar 8615   3.875   1.625   4.075  0.0000  0.0000  0.0000
    11DUM    Ar 8616   3.725   1.775   4.075  0.0000  0.0000  0.0000
    11DUM    Ar 8617   4.025   1.625   3.925  0.0000  0.0000  0.0000
    11DUM    Ar 8618   4.175   1.775   3.925  0.0000  0.0000  0.0000
    11DUM    Ar 8619   4.175   1.625   4.075  0.0000  0.0000  0.0000
    11DUM    Ar 8620   4.025   1.775   4.075  0.0000  0.0000  0.0000
    11DUM    Ar 8621  -0.175   1.925   3.925  0.0000  0.0000  0.0000
    11DUM    Ar 8622  -0.025   2.075   3.925  0.0000  0.0000  0.0000
    11DUM    Ar 8623  -0.025   1.925   4.075  0.0000  0.0000  0.0000
    11DUM    Ar 8624  -0.175   2.075   4.075  0.0000  0.0000  0.0000
    11DUM    Ar 8625   0.125   1.925   3.925  0.0000  0.0000  0.0000
    11DUM    Ar 8626   0.275   2.075   3.925  0.0000  0.0000  0.0000
    11DUM    Ar 8627   0.275   1.925   4.075  0.0000  0.0000  0.0000
    11DUM    Ar 8628   0.125   2.075   4.075  0.0000  0.0000  0.0000
    11DUM    Ar 8629   0.425   1.925   3.925  0.0000  0.0000  0.0000
    11DUM    Ar 8630   0.575   2.075   3.925  0.0000  0.0000  0.0000
    11DUM    Ar 8631   0.575   1.925   4.075  0.0000  0.0000  0.0000
    11DUM    Ar 8632   0.425   2.075   4.075  0.0000  0.0000  0.0000
    11DUM    Ar 8633   0.725   1.925   3.925  0.0000  0.0000  0.0000
    11DUM    Ar 8634   0.875   2.075   3.925  0.0000  0.0000  0.0000
    11DUM    Ar 8635   0.875   1.925   4.075  0.0000  0.0000  0.0000
    11DUM    Ar 8636   0.725   2.075   4.075  0.0000  0.0000  0.0000
    11DUM    Ar 8637   1.025   1.925   3.925  0.0000  0.0000  0.0000
    11DUM    Ar 8638   1.175   2.075   3.925  0.0000  0.0000  0.0000
    11DUM    Ar 8639   1.175   1.925   4.075  0.0000  0.0000  0.0000
    11DUM    Ar 8640   1.025   2.075   4.075  0.0000  0.0000  0.0000
    11DUM    Ar 8641   1.325   1.925   3.925  0.0000  0.0000  0.0000
    11DUM    Ar 8642   1.475   2.075   3.925  0.0000  0.0000  0.0000
    11DUM    Ar 8643   1.475   1.925   4.075  0.0000  0.0000  0.0000
    11DUM    Ar 8644   1.325   2.075   4.075  0.0000  0.0000  0.0000
    11DUM    Ar 8645   1.625   1.925   3.925  0.0000  0.0000  0.0000
    11DUM    Ar 8646   1.775   2.075   3.925  0.0000  0.0000  0.0000
    11DUM    Ar 8647   1.775   1.925   4.075  0.0000  0.0000  0.0000
    11DUM    Ar 8648   1.625   2.075   4.075  0.0000  0.0000  0.0000
    11DUM    Ar 8649   1.925   1.925   3.925  0.0000  0.0000  0.0000
    11DUM    Ar 8650   2.075   2.075   3.925  0.0000  0.0000  0.0000
    11DUM    Ar 8651   2.075   1.925   4.075  0.0000  0.0000  0.0000
    11DUM    Ar 8652   1.925   2.075   4.075  0.0000  0.0000  0.0000
    11DUM    Ar 8653   2.225   1.925   3.925  0.0000  0.0000  0.0000
    11DUM    Ar 8654   2.375   2.075   3.925  0.0000  0.0000  0.0000
    11DUM    Ar 8655   2.375   1.925   4.075  0.0000  0.0000  0.0000
    11DUM    Ar 8656   2.225   2.075   4.075  0.0000  0.0000  0.0000
    11DUM    Ar 8657   2.525   1.925   3.925  0.0000  0.0000  0.0000
    11DUM    Ar 8658   2.675   2.075   3.925  0.0000  0.0000  0.0000
    11DUM    Ar 8659   2.675   1.925   4.075  0.0000  0.0000  0.0000
    11DUM    Ar 8660   2.525   2.075   4.075  0.0000  0.0000  0.0000
    11DUM    Ar 8661   2.825   1.925   3.925  0.0000  0.0000  0.0000
    11DUM    Ar 8662   2.975   2.075   3.925  0.0000  0.0000  0.0000
    11DUM    Ar 8663   2.975   1.925   4.075  0.0000  0.0000  0.0000
    11DUM    Ar 8664   2.825   2.075   4.075  0.0000  0.0000  0.0000
    11DUM    Ar 8665   3.125   1.925   3.925  0.0000  0.0000  0.0000
    11DUM    Ar 8666   3.275   2.075   3.925  0.0000  0.0000  0.0000
    11DUM    Ar 8667   3.275   1.925   4.075  0.0000  0.0000  0.0000
    11DUM    Ar 8668   3.125   2.075   4.075  0.0000  0.0000  0.0000
    11DUM    Ar 8669   3.425   1.925   3.925  0.0000  0.0000  0.0000
    11DUM    Ar 8670   3.575   2.075   3.925  0.0000  0.0000  0.0000
    11DUM    Ar 8671   3.575   1.925   4.075  0.0000  0.0000  0.0000
    11DUM    Ar 8672   3.425   2.075   4.075  0.0000  0.0000  0.0000
    11DUM    Ar 8673   3.725   1.925   3.925  0.0000  0.0000  0.0000
    11DUM    Ar 8674   3.875   2.075   3.925  0.0000  0.0000  0.0000
    11DUM    Ar 8675   3.875   1.925   4.075  0.0000  0.0000  0.0000
    11DUM    Ar 8676   3.725   2.075   4.075  0.0000  0.0000  0.0000
    11DUM    Ar 8677   4.025   1.925   3.925  0.0000  0.0000  0.0000
    11DUM    Ar 8678   4.175   2.075   3.925  0.0000  0.0000  0.0000
    11DUM    Ar 8679   4.175   1.925   4.075  0.0000  0.0000  0.0000
    11DUM    Ar 8680   4.025   2.075   4.075  0.0000  0.0000  0.0000
    11DUM    Ar 8681  -0.175   2.225   3.925  0.0000  0.0000  0.0000
    11DUM    Ar 8682  -0.025   2.375   3.925  0.0000  0.0000  0.0000
    11DUM    Ar 8683  -0.025   2.225   4.075  0.0000  0.0000  0.0000
    11DUM    Ar 8684  -0.175   2.375   4.075  0.0000  0.0000  0.0000
    11DUM    Ar 8685   0.125   2.225   3.925  0.0000  0.0000  0.0000
    11DUM    Ar 8686   0.275   2.375   3.925  0.0000  0.0000  0.0000
    11DUM    Ar 8687   0.275   2.225   4.075  0.0000  0.0000  0.0000
    11DUM    Ar 8688   0.125   2.375   4.075  0.0000  0.0000  0.0000
    11DUM    Ar 8689   0.425   2.225   3.925  0.0000  0.0000  0.0000
    11DUM    Ar 8690   0.575   2.375   3.925  0.0000  0.0000  0.0000
    11DUM    Ar 8691   0.575   2.225   4.075  0.0000  0.0000  0.0000
    11DUM    Ar 8692   0.425   2.375   4.075  0.0000  0.0000  0.0000
    11DUM    Ar 8693   0.725   2.225   3.925  0.0000  0.0000  0.0000
    11DUM    Ar 8694   0.875   2.375   3.925  0.0000  0.0000  0.0000
    11DUM    Ar 8695   0.875   2.225   4.075  0.0000  0.0000  0.0000
    11DUM    Ar 8696   0.725   2.375   4.075  0.0000  0.0000  0.0000
    11DUM    Ar 8697   1.025   2.225   3.925  0.0000  0.0000  0.0000
    11DUM    Ar 8698   1.175   2.375   3.925  0.0000  0.0000  0.0000
    11DUM    Ar 8699   1.175   2.225   4.075  0.0000  0.0000  0.0000
    11DUM    Ar 8700   1.025   2.375   4.075  0.0000  0.0000  0.0000
    11DUM    Ar 8701   1.325   2.225   3.925  0.0000  0.0000  0.0000
    11DUM    Ar 8702   1.475   2.375   3.925  0.0000  0.0000  0.0000
    11DUM    Ar 8703   1.475   2.225   4.075  0.0000  0.0000  0.0000
    11DUM    Ar 8704   1.325   2.375   4.075  0.0000  0.0000  0.0000
    11DUM    Ar 8705   1.625   2.225   3.925  0.0000  0.0000  0.0000
    11DUM    Ar 8706   1.775   2.375   3.925  0.0000  0.0000  0.0000
    11DUM    Ar 8707   1.775   2.225   4.075  0.0000  0.0000  0.0000
    11DUM    Ar 8708   1.625   2.375   4.075  0.0000  0.0000  0.0000
    11DUM    Ar 8709   1.925   2.225   3.925  0.0000  0.0000  0.0000
    11DUM    Ar 8710   2.075   2.375   3.925  0.0000  0.0000  0.0000
    11DUM    Ar 8711   2.075   2.225   4.075  0.0000  0.0000  0.0000
    11DUM    Ar 8712   1.925   2.375   4.075  0.0000  0.0000  0.0000
    11DUM    Ar 8713   2.225   2.225   3.925  0.0000  0.0000  0.0000
    11DUM    Ar 8714   2.375   2.375   3.925  0.0000  0.0000  0.0000
    11DUM    Ar 8715   2.375   2.225   4.075  0.0000  0.0000  0.0000
    11DUM    Ar 8716   2.225   2.375   4.075  0.0000  0.0000  0.0000
    11DUM    Ar 8717   2.525   2.225   3.925  0.0000  0.0000  0.0000
    11DUM    Ar 8718   2.675   2.375   3.925  0.0000  0.0000  0.0000
    11DUM    Ar 8719   2.675   2.225   4.075  0.0000  0.0000  0.0000
    11DUM    Ar 8720   2.525   2.375   4.075  0.0000  0.0000  0.0000
    11DUM    Ar 8721   2.825   2.225   3.925  0.0000  0.0000  0.0000
    11DUM    Ar 8722   2.975   2.375   3.925  0.0000  0.0000  0.0000
    11DUM    Ar 8723   2.975   2.225   4.075  0.0000  0.0000  0.0000
    11DUM    Ar 8724   2.825   2.375   4.075  0.0000  0.0000  0.0000
    11DUM    Ar 8725   3.125   2.225   3.925  0.0000  0.0000  0.0000
    11DUM    Ar 8726   3.275   2.375   3.925  0.0000  0.0000  0.0000
    11DUM    Ar 8727   3.275   2.225   4.075  0.0000  0.0000  0.0000
    11DUM    Ar 8728   3.125   2.375   4.075  0.0000  0.0000  0.0000
    11DUM    Ar 8729   3.425   2.225   3.925  0.0000  0.0000  0.0000
    11DUM    Ar 8730   3.575   2.375   3.925  0.0000  0.0000  0.0000
    11DUM    Ar 8731   3.575   2.225   4.075  0.0000  0.0000  0.0000
    11DUM    Ar 8732   3.425   2.375   4.075  0.0000  0.0000  0.0000
    11DUM    Ar 8733   3.725   2.225   3.925  0.0000  0.0000  0.0000
    11DUM    Ar 8734   3.875   2.375   3.925  0.0000  0.0000  0.0000
    11DUM    Ar 8735   3.875   2.225   4.075  0.0000  0.0000  0.0000
    11DUM    Ar 8736   3.725   2.375   4.075  0.0000  0.0000  0.0000
    11DUM    Ar 8737   4.025   2.225   3.925  0.0000  0.0000  0.0000
    11DUM    Ar 8738   4.175   2.375   3.925  0.0000  0.0000  0.0000
    11DUM    Ar 8739   4.175   2.225   4.075  0.0000  0.0000  0.0000
    11DUM    Ar 8740   4.025   2.375   4.075  0.0000  0.0000  0.0000
    11DUM    Ar 8741  -0.175   2.525   3.925  0.0000  0.0000  0.0000
    11DUM    Ar 8742  -0.025   2.675   3.925  0.0000  0.0000  0.0000
    11DUM    Ar 8743  -0.025   2.525   4.075  0.0000  0.0000  0.0000
    11DUM    Ar 8744  -0.175   2.675   4.075  0.0000  0.0000  0.0000
    11DUM    Ar 8745   0.125   2.525   3.925  0.0000  0.0000  0.0000
    11DUM    Ar 8746   0.275   2.675   3.925  0.0000  0.0000  0.0000
    11DUM    Ar 8747   0.275   2.525   4.075  0.0000  0.0000  0.0000
    11DUM    Ar 8748   0.125   2.675   4.075  0.0000  0.0000  0.0000
    11DUM    Ar 8749   0.425   2.525   3.925  0.0000  0.0000  0.0000
    11DUM    Ar 8750   0.575   2.525   4.075  0.0000  0.0000  0.0000
    11DUM    Ar 8751   0.425   2.675   4.075  0.0000  0.0000  0.0000
    11DUM    Ar 8752   1.475   2.525   4.075  0.0000  0.0000  0.0000
    11DUM    Ar 8753   1.625   2.525   3.925  0.0000  0.0000  0.0000
    11DUM    Ar 8754   1.775   2.675   3.925  0.0000  0.0000  0.0000
    11DUM    Ar 8755   1.775   2.525   4.075  0.0000  0.0000  0.0000
    11DUM    Ar 8756   1.625   2.675   4.075  0.0000  0.0000  0.0000
    11DUM    Ar 8757   1.925   2.525   3.925  0.0000  0.0000  0.0000
    11DUM    Ar 8758   2.075   2.675   3.925  0.0000  0.0000  0.0000
    11DUM    Ar 8759   2.075   2.525   4.075  0.0000  0.0000  0.0000
    11DUM    Ar 8760   1.925   2.675   4.075  0.0000  0.0000  0.0000
    11DUM    Ar 8761   2.225   2.525   3.925  0.0000  0.0000  0.0000
    11DUM    Ar 8762   2.375   2.675   3.925  0.0000  0.0000  0.0000
    11DUM    Ar 8763   2.375   2.525   4.075  0.0000  0.0000  0.0000
    11DUM    Ar 8764   2.225   2.675   4.075  0.0000  0.0000  0.0000
    11DUM    Ar 8765   2.525   2.525   3.925  0.0000  0.0000  0.0000
    11DUM    Ar 8766   3.425   2.525   3.925  0.0000  0.0000  0.0000
    11DUM    Ar 8767   3.575   2.675   3.925  0.0000  0.0000  0.0000
    11DUM    Ar 8768   3.575   2.525   4.075  0.0000  0.0000  0.0000
    11DUM    Ar 8769   3.725   2.525   3.925  0.0000  0.0000  0.0000
    11DUM    Ar 8770   3.875   2.675   3.925  0.0000  0.0000  0.0000
    11DUM    Ar 8771   3.875   2.525   4.075  0.0000  0.0000  0.0000
    11DUM    Ar 8772   3.725   2.675   4.075  0.0000  0.0000  0.0000
    11DUM    Ar 8773   4.025   2.525   3.925  0.0000  0.0000  0.0000
    11DUM    Ar 8774   4.175   2.675   3.925  0.0000  0.0000  0.0000
    11DUM    Ar 8775   4.175   2.525   4.075  0.0000  0.0000  0.0000
    11DUM    Ar 8776   4.025   2.675   4.075  0.0000  0.0000  0.0000
    11DUM    Ar 8777  -0.175   2.825   3.925  0.0000  0.0000  0.0000
    11DUM    Ar 8778  -0.025   2.975   3.925  0.0000  0.0000  0.0000
    11DUM    Ar 8779  -0.025   2.825   4.075  0.0000  0.0000  0.0000
    11DUM    Ar 8780  -0.175   2.975   4.075  0.0000  0.0000  0.0000
    11DUM    Ar 8781   0.125   2.825   3.925  0.0000  0.0000  0.0000
    11DUM    Ar 8782   0.275   2.975   3.925  0.0000  0.0000  0.0000
    11DUM    Ar 8783   0.275   2.825   4.075  0.0000  0.0000  0.0000
    11DUM    Ar 8784   0.125   2.975   4.075  0.0000  0.0000  0.0000
    11DUM    Ar 8785   1.625   2.825   3.925  0.0000  0.0000  0.0000
    11DUM    Ar 8786   1.775   2.975   3.925  0.0000  0.0000  0.0000
    11DUM    Ar 8787   1.775   2.825   4.075  0.0000  0.0000  0.0000
    11DUM    Ar 8788   1.625   2.975   4.075  0.0000  0.0000  0.0000
    11DUM    Ar 8789   1.925   2.825   3.925  0.0000  0.0000  0.0000
    11DUM    Ar 8790   2.075   2.975   3.925  0.0000  0.0000  0.0000
    11DUM    Ar 8791   2.075   2.825   4.075  0.0000  0.0000  0.0000
    11DUM    Ar 8792   1.925   2.975   4.075  0.0000  0.0000  0.0000
    11DUM    Ar 8793   2.225   2.825   3.925  0.0000  0.0000  0.0000
    11DUM    Ar 8794   2.375   2.975   3.925  0.0000  0.0000  0.0000
    11DUM    Ar 8795   2.375   2.825   4.075  0.0000  0.0000  0.0000
    11DUM    Ar 8796   2.225   2.975   4.075  0.0000  0.0000  0.0000
    11DUM    Ar 8797   3.725   2.825   3.925  0.0000  0.0000  0.0000
    11DUM    Ar 8798   3.875   2.975   3.925  0.0000  0.0000  0.0000
    11DUM    Ar 8799   3.875   2.825   4.075  0.0000  0.0000  0.0000
    11DUM    Ar 8800   3.725   2.975   4.075  0.0000  0.0000  0.0000
    11DUM    Ar 8801   4.025   2.825   3.925  0.0000  0.0000  0.0000
    11DUM    Ar 8802   4.175   2.975   3.925  0.0000  0.0000  0.0000
    11DUM    Ar 8803   4.175   2.825   4.075  0.0000  0.0000  0.0000
    11DUM    Ar 8804   4.025   2.975   4.075  0.0000  0.0000  0.0000
    11DUM    Ar 8805  -0.175   3.125   3.925  0.0000  0.0000  0.0000
    11DUM    Ar 8806  -0.025   3.275   3.925  0.0000  0.0000  0.0000
    11DUM    Ar 8807  -0.025   3.125   4.075  0.0000  0.0000  0.0000
    11DUM    Ar 8808  -0.175   3.275   4.075  0.0000  0.0000  0.0000
    11DUM    Ar 8809   0.125   3.125   3.925  0.0000  0.0000  0.0000
    11DUM    Ar 8810   0.275   3.275   3.925  0.0000  0.0000  0.0000
    11DUM    Ar 8811   0.275   3.125   4.075  0.0000  0.0000  0.0000
    11DUM    Ar 8812   0.125   3.275   4.075  0.0000  0.0000  0.0000
    11DUM    Ar 8813   0.425   3.275   4.075  0.0000  0.0000  0.0000
    11DUM    Ar 8814   1.625   3.125   3.925  0.0000  0.0000  0.0000
    11DUM    Ar 8815   1.775   3.275   3.925  0.0000  0.0000  0.0000
    11DUM    Ar 8816   1.775   3.125   4.075  0.0000  0.0000  0.0000
    11DUM    Ar 8817   1.625   3.275   4.075  0.0000  0.0000  0.0000
    11DUM    Ar 8818   1.925   3.125   3.925  0.0000  0.0000  0.0000
    11DUM    Ar 8819   2.075   3.275   3.925  0.0000  0.0000  0.0000
    11DUM    Ar 8820   2.075   3.125   4.075  0.0000  0.0000  0.0000
    11DUM    Ar 8821   1.925   3.275   4.075  0.0000  0.0000  0.0000
    11DUM    Ar 8822   2.225   3.125   3.925  0.0000  0.0000  0.0000
    11DUM    Ar 8823   2.375   3.275   3.925  0.0000  0.0000  0.0000
    11DUM    Ar 8824   2.375   3.125   4.075  0.0000  0.0000  0.0000
    11DUM    Ar 8825   2.225   3.275   4.075  0.0000  0.0000  0.0000
    11DUM    Ar 8826   3.575   3.275   3.925  0.0000  0.0000  0.0000
    11DUM    Ar 8827   3.725   3.125   3.925  0.0000  0.0000  0.0000
    11DUM    Ar 8828   3.875   3.275   3.925  0.0000  0.0000  0.0000
    11DUM    Ar 8829   3.875   3.125   4.075  0.0000  0.0000  0.0000
    11DUM    Ar 8830   3.725   3.275   4.075  0.0000  0.0000  0.0000
    11DUM    Ar 8831   4.025   3.125   3.925  0.0000  0.0000  0.0000
    11DUM    Ar 8832   4.175   3.275   3.925  0.0000  0.0000  0.0000
    11DUM    Ar 8833   4.175   3.125   4.075  0.0000  0.0000  0.0000
    11DUM    Ar 8834   4.025   3.275   4.075  0.0000  0.0000  0.0000
    11DUM    Ar 8835  -0.175   3.425   3.925  0.0000  0.0000  0.0000
    11DUM    Ar 8836  -0.025   3.575   3.925  0.0000  0.0000  0.0000
    11DUM    Ar 8837  -0.025   3.425   4.075  0.0000  0.0000  0.0000
    11DUM    Ar 8838  -0.175   3.575   4.075  0.0000  0.0000  0.0000
    11DUM    Ar 8839   0.125   3.425   3.925  0.0000  0.0000  0.0000
    11DUM    Ar 8840   0.275   3.575   3.925  0.0000  0.0000  0.0000
    11DUM    Ar 8841   0.275   3.425   4.075  0.0000  0.0000  0.0000
    11DUM    Ar 8842   0.125   3.575   4.075  0.0000  0.0000  0.0000
    11DUM    Ar 8843   0.425   3.425   3.925  0.0000  0.0000  0.0000
    11DUM    Ar 8844   0.575   3.575   3.925  0.0000  0.0000  0.0000
    11DUM    Ar 8845   0.425   3.575   4.075  0.0000  0.0000  0.0000
    11DUM    Ar 8846   0.725   3.575   4.075  0.0000  0.0000  0.0000
    11DUM    Ar 8847   1.475   3.575   3.925  0.0000  0.0000  0.0000
    11DUM    Ar 8848   1.475   3.425   4.075  0.0000  0.0000  0.0000
    11DUM    Ar 8849   1.325   3.575   4.075  0.0000  0.0000  0.0000
    11DUM    Ar 8850   1.625   3.425   3.925  0.0000  0.0000  0.0000
    11DUM    Ar 8851   1.775   3.575   3.925  0.0000  0.0000  0.0000
    11DUM    Ar 8852   1.775   3.425   4.075  0.0000  0.0000  0.0000
    11DUM    Ar 8853   1.625   3.575   4.075  0.0000  0.0000  0.0000
    11DUM    Ar 8854   1.925   3.425   3.925  0.0000  0.0000  0.0000
    11DUM    Ar 8855   2.075   3.575   3.925  0.0000  0.0000  0.0000
    11DUM    Ar 8856   2.075   3.425   4.075  0.0000  0.0000  0.0000
    11DUM    Ar 8857   1.925   3.575   4.075  0.0000  0.0000  0.0000
    11DUM    Ar 8858   2.225   3.425   3.925  0.0000  0.0000  0.0000
    11DUM    Ar 8859   2.375   3.575   3.925  0.0000  0.0000  0.0000
    11DUM    Ar 8860   2.375   3.425   4.075  0.0000  0.0000  0.0000
    11DUM    Ar 8861   2.225   3.575   4.075  0.0000  0.0000  0.0000
    11DUM    Ar 8862   2.525   3.425   3.925  0.0000  0.0000  0.0000
    11DUM    Ar 8863   2.675   3.575   3.925  0.0000  0.0000  0.0000
    11DUM    Ar 8864   2.525   3.575   4.075  0.0000  0.0000  0.0000
    11DUM    Ar 8865   3.275   3.575   3.925  0.0000  0.0000  0.0000
    11DUM    Ar 8866   3.575   3.575   3.925  0.0000  0.0000  0.0000
    11DUM    Ar 8867   3.575   3.425   4.075  0.0000  0.0000  0.0000
    11DUM    Ar 8868   3.425   3.575   4.075  0.0000  0.0000  0.0000
    11DUM    Ar 8869   3.725   3.425   3.925  0.0000  0.0000  0.0000
    11DUM    Ar 8870   3.875   3.575   3.925  0.0000  0.0000  0.0000
    11DUM    Ar 8871   3.875   3.425   4.075  0.0000  0.0000  0.0000
    11DUM    Ar 8872   3.725   3.575   4.075  0.0000  0.0000  0.0000
    11DUM    Ar 8873   4.025   3.425   3.925  0.0000  0.0000  0.0000
    11DUM    Ar 8874   4.175   3.575   3.925  0.0000  0.0000  0.0000
    11DUM    Ar 8875   4.175   3.425   4.075  0.0000  0.0000  0.0000
    11DUM    Ar 8876   4.025   3.575   4.075  0.0000  0.0000  0.0000
    11DUM    Ar 8877  -0.175   3.725   3.925  0.0000  0.0000  0.0000
    11DUM    Ar 8878  -0.025   3.875   3.925  0.0000  0.0000  0.0000
    11DUM    Ar 8879  -0.025   3.725   4.075  0.0000  0.0000  0.0000
    11DUM    Ar 8880  -0.175   3.875   4.075  0.0000  0.0000  0.0000
    11DUM    Ar 8881   0.125   3.725   3.925  0.0000  0.0000  0.0000
    11DUM    Ar 8882   0.275   3.875   3.925  0.0000  0.0000  0.0000
    11DUM    Ar 8883   0.275   3.725   4.075  0.0000  0.0000  0.0000
    11DUM    Ar 8884   0.125   3.875   4.075  0.0000  0.0000  0.0000
    11DUM    Ar 8885   0.425   3.725   3.925  0.0000  0.0000  0.0000
    11DUM    Ar 8886   0.575   3.875   3.925  0.0000  0.0000  0.0000
    11DUM    Ar 8887   0.575   3.725   4.075  0.0000  0.0000  0.0000
    11DUM    Ar 8888   0.425   3.875   4.075  0.0000  0.0000  0.0000
    11DUM    Ar 8889   0.725   3.725   3.925  0.0000  0.0000  0.0000
    11DUM    Ar 8890   0.875   3.875   3.925  0.0000  0.0000  0.0000
    11DUM    Ar 8891   0.875   3.725   4.075  0.0000  0.0000  0.0000
    11DUM    Ar 8892   0.725   3.875   4.075  0.0000  0.0000  0.0000
    11DUM    Ar 8893   1.025   3.725   3.925  0.0000  0.0000  0.0000
    11DUM    Ar 8894   1.175   3.875   3.925  0.0000  0.0000  0.0000
    11DUM    Ar 8895   1.175   3.725   4.075  0.0000  0.0000  0.0000
    11DUM    Ar 8896   1.025   3.875   4.075  0.0000  0.0000  0.0000
    11DUM    Ar 8897   1.325   3.725   3.925  0.0000  0.0000  0.0000
    11DUM    Ar 8898   1.475   3.875   3.925  0.0000  0.0000  0.0000
    11DUM    Ar 8899   1.475   3.725   4.075  0.0000  0.0000  0.0000
    11DUM    Ar 8900   1.325   3.875   4.075  0.0000  0.0000  0.0000
    11DUM    Ar 8901   1.625   3.725   3.925  0.0000  0.0000  0.0000
    11DUM    Ar 8902   1.775   3.875   3.925  0.0000  0.0000  0.0000
    11DUM    Ar 8903   1.775   3.725   4.075  0.0000  0.0000  0.0000
    11DUM    Ar 8904   1.625   3.875   4.075  0.0000  0.0000  0.0000
    11DUM    Ar 8905   1.925   3.725   3.925  0.0000  0.0000  0.0000
    11DUM    Ar 8906   2.075   3.875   3.925  0.0000  0.0000  0.0000
    11DUM    Ar 8907   2.075   3.725   4.075  0.0000  0.0000  0.0000
    11DUM    Ar 8908   1.925   3.875   4.075  0.0000  0.0000  0.0000
    11DUM    Ar 8909   2.225   3.725   3.925  0.0000  0.0000  0.0000
    11DUM    Ar 8910   2.375   3.875   3.925  0.0000  0.0000  0.0000
    11DUM    Ar 8911   2.375   3.725   4.075  0.0000  0.0000  0.0000
    11DUM    Ar 8912   2.225   3.875   4.075  0.0000  0.0000  0.0000
    11DUM    Ar 8913   2.525   3.725   3.925  0.0000  0.0000  0.0000
    11DUM    Ar 8914   2.675   3.875   3.925  0.0000  0.0000  0.0000
    11DUM    Ar 8915   2.675   3.725   4.075  0.0000  0.0000  0.0000
    11DUM    Ar 8916   2.525   3.875   4.075  0.0000  0.0000  0.0000
    11DUM    Ar 8917   2.825   3.725   3.925  0.0000  0.0000  0.0000
    11DUM    Ar 8918   2.975   3.875   3.925  0.0000  0.0000  0.0000
    11DUM    Ar 8919   2.975   3.725   4.075  0.0000  0.0000  0.0000
    11DUM    Ar 8920   2.825   3.875   4.075  0.0000  0.0000  0.0000
    11DUM    Ar 8921   3.125   3.725   3.925  0.0000  0.0000  0.0000
    11DUM    Ar 8922   3.275   3.875   3.925  0.0000  0.0000  0.0000
    11DUM    Ar 8923   3.275   3.725   4.075  0.0000  0.0000  0.0000
    11DUM    Ar 8924   3.125   3.875   4.075  0.0000  0.0000  0.0000
    11DUM    Ar 8925   3.425   3.725   3.925  0.0000  0.0000  0.0000
    11DUM    Ar 8926   3.575   3.875   3.925  0.0000  0.0000  0.0000
    11DUM    Ar 8927   3.575   3.725   4.075  0.0000  0.0000  0.0000
    11DUM    Ar 8928   3.425   3.875   4.075  0.0000  0.0000  0.0000
    11DUM    Ar 8929   3.725   3.725   3.925  0.0000  0.0000  0.0000
    11DUM    Ar 8930   3.875   3.875   3.925  0.0000  0.0000  0.0000
    11DUM    Ar 8931   3.875   3.725   4.075  0.0000  0.0000  0.0000
    11DUM    Ar 8932   3.725   3.875   4.075  0.0000  0.0000  0.0000
    11DUM    Ar 8933   4.025   3.725   3.925  0.0000  0.0000  0.0000
    11DUM    Ar 8934   4.175   3.875   3.925  0.0000  0.0000  0.0000
    11DUM    Ar 8935   4.175   3.725   4.075  0.0000  0.0000  0.0000
    11DUM    Ar 8936   4.025   3.875   4.075  0.0000  0.0000  0.0000
    11DUM    Ar 8937  -0.175   4.025   3.925  0.0000  0.0000  0.0000
    11DUM    Ar 8938  -0.025   4.175   3.925  0.0000  0.0000  0.0000
    11DUM    Ar 8939  -0.025   4.025   4.075  0.0000  0.0000  0.0000
    11DUM    Ar 8940  -0.175   4.175   4.075  0.0000  0.0000  0.0000
    11DUM    Ar 8941   0.125   4.025   3.925  0.0000  0.0000  0.0000
    11DUM    Ar 8942   0.275   4.175   3.925  0.0000  0.0000  0.0000
    11DUM    Ar 8943   0.275   4.025   4.075  0.0000  0.0000  0.0000
    11DUM    Ar 8944   0.125   4.175   4.075  0.0000  0.0000  0.0000
    11DUM    Ar 8945   0.425   4.025   3.925  0.0000  0.0000  0.0000
    11DUM    Ar 8946   0.575   4.175   3.925  0.0000  0.0000  0.0000
    11DUM    Ar 8947   0.575   4.025   4.075  0.0000  0.0000  0.0000
    11DUM    Ar 8948   0.425   4.175   4.075  0.0000  0.0000  0.0000
    11DUM    Ar 8949   0.725   4.025   3.925  0.0000  0.0000  0.0000
    11DUM    Ar 8950   0.875   4.175   3.925  0.0000  0.0000  0.0000
    11DUM    Ar 8951   0.875   4.025   4.075  0.0000  0.0000  0.0000
    11DUM    Ar 8952   0.725   4.175   4.075  0.0000  0.0000  0.0000
    11DUM    Ar 8953   1.025   4.025   3.925  0.0000  0.0000  0.0000
    11DUM    Ar 8954   1.175   4.175   3.925  0.0000  0.0000  0.0000
    11DUM    Ar 8955   1.175   4.025   4.075  0.0000  0.0000  0.0000
    11DUM    Ar 8956   1.025   4.175   4.075  0.0000  0.0000  0.0000
    11DUM    Ar 8957   1.325   4.025   3.925  0.0000  0.0000  0.0000
    11DUM    Ar 8958   1.475   4.175   3.925  0.0000  0.0000  0.0000
    11DUM    Ar 8959   1.475   4.025   4.075  0.0000  0.0000  0.0000
    11DUM    Ar 8960   1.325   4.175   4.075  0.0000  0.0000  0.0000
    11DUM    Ar 8961   1.625   4.025   3.925  0.0000  0.0000  0.0000
    11DUM    Ar 8962   1.775   4.175   3.925  0.0000  0.0000  0.0000
    11DUM    Ar 8963   1.775   4.025   4.075  0.0000  0.0000  0.0000
    11DUM    Ar 8964   1.625   4.175   4.075  0.0000  0.0000  0.0000
    11DUM    Ar 8965   1.925   4.025   3.925  0.0000  0.0000  0.0000
    11DUM    Ar 8966   2.075   4.175   3.925  0.0000  0.0000  0.0000
    11DUM    Ar 8967   2.075   4.025   4.075  0.0000  0.0000  0.0000
    11DUM    Ar 8968   1.925   4.175   4.075  0.0000  0.0000  0.0000
    11DUM    Ar 8969   2.225   4.025   3.925  0.0000  0.0000  0.0000
    11DUM    Ar 8970   2.375   4.175   3.925  0.0000  0.0000  0.0000
    11DUM    Ar 8971   2.375   4.025   4.075  0.0000  0.0000  0.0000
    11DUM    Ar 8972   2.225   4.175   4.075  0.0000  0.0000  0.0000
    11DUM    Ar 8973   2.525   4.025   3.925  0.0000  0.0000  0.0000
    11DUM    Ar 8974   2.675   4.175   3.925  0.0000  0.0000  0.0000
    11DUM    Ar 8975   2.675   4.025   4.075  0.0000  0.0000  0.0000
    11DUM    Ar 8976   2.525   4.175   4.075  0.0000  0.0000  0.0000
    11DUM    Ar 8977   2.825   4.025   3.925  0.0000  0.0000  0.0000
    11DUM    Ar 8978   2.975   4.175   3.925  0.0000  0.0000  0.0000
    11DUM    Ar 8979   2.975   4.025   4.075  0.0000  0.0000  0.0000
    11DUM    Ar 8980   2.825   4.175   4.075  0.0000  0.0000  0.0000
    11DUM    Ar 8981   3.125   4.025   3.925  0.0000  0.0000  0.0000
    11DUM    Ar 8982   3.275   4.175   3.925  0.0000  0.0000  0.0000
    11DUM    Ar 8983   3.275   4.025   4.075  0.0000  0.0000  0.0000
    11DUM    Ar 8984   3.125   4.175   4.075  0.0000  0.0000  0.0000
    11DUM    Ar 8985   3.425   4.025   3.925  0.0000  0.0000  0.0000
    11DUM    Ar 8986   3.575   4.175   3.925  0.0000  0.0000  0.0000
    11DUM    Ar 8987   3.575   4.025   4.075  0.0000  0.0000  0.0000
    11DUM    Ar 8988   3.425   4.175   4.075  0.0000  0.0000  0.0000
    11DUM    Ar 8989   3.725   4.025   3.925  0.0000  0.0000  0.0000
    11DUM    Ar 8990   3.875   4.175   3.925  0.0000  0.0000  0.0000
    11DUM    Ar 8991   3.875   4.025   4.075  0.0000  0.0000  0.0000
    11DUM    Ar 8992   3.725   4.175   4.075  0.0000  0.0000  0.0000
    11DUM    Ar 8993   4.025   4.025   3.925  0.0000  0.0000  0.0000
    11DUM    Ar 8994   4.175   4.175   3.925  0.0000  0.0000  0.0000
    11DUM    Ar 8995   4.175   4.025   4.075  0.0000  0.0000  0.0000
    11DUM    Ar 8996   4.025   4.175   4.075  0.0000  0.0000  0.0000
    11DUM    Ar 8997  -0.175  -0.175   4.225  0.0000  0.0000  0.0000
    11DUM    Ar 8998  -0.025  -0.025   4.225  0.0000  0.0000  0.0000
    11DUM    Ar 8999  -0.025  -0.175   4.375  0.0000  0.0000  0.0000
    11DUM    Ar 9000  -0.175  -0.025   4.375  0.0000  0.0000  0.0000
    11DUM    Ar 9001   0.125  -0.175   4.225  0.0000  0.0000  0.0000
    11DUM    Ar 9002   0.275  -0.025   4.225  0.0000  0.0000  0.0000
    11DUM    Ar 9003   0.275  -0.175   4.375  0.0000  0.0000  0.0000
    11DUM    Ar 9004   0.125  -0.025   4.375  0.0000  0.0000  0.0000
    11DUM    Ar 9005   0.425  -0.175   4.225  0.0000  0.0000  0.0000
    11DUM    Ar 9006   0.575  -0.025   4.225  0.0000  0.0000  0.0000
    11DUM    Ar 9007   0.575  -0.175   4.375  0.0000  0.0000  0.0000
    11DUM    Ar 9008   0.425  -0.025   4.375  0.0000  0.0000  0.0000
    11DUM    Ar 9009   0.725  -0.175   4.225  0.0000  0.0000  0.0000
    11DUM    Ar 9010   0.875  -0.025   4.225  0.0000  0.0000  0.0000
    11DUM    Ar 9011   0.875  -0.175   4.375  0.0000  0.0000  0.0000
    11DUM    Ar 9012   0.725  -0.025   4.375  0.0000  0.0000  0.0000
    11DUM    Ar 9013   1.025  -0.175   4.225  0.0000  0.0000  0.0000
    11DUM    Ar 9014   1.175  -0.025   4.225  0.0000  0.0000  0.0000
    11DUM    Ar 9015   1.175  -0.175   4.375  0.0000  0.0000  0.0000
    11DUM    Ar 9016   1.025  -0.025   4.375  0.0000  0.0000  0.0000
    11DUM    Ar 9017   1.325  -0.175   4.225  0.0000  0.0000  0.0000
    11DUM    Ar 9018   1.475  -0.025   4.225  0.0000  0.0000  0.0000
    11DUM    Ar 9019   1.475  -0.175   4.375  0.0000  0.0000  0.0000
    11DUM    Ar 9020   1.325  -0.025   4.375  0.0000  0.0000  0.0000
    11DUM    Ar 9021   1.625  -0.175   4.225  0.0000  0.0000  0.0000
    11DUM    Ar 9022   1.775  -0.025   4.225  0.0000  0.0000  0.0000
    11DUM    Ar 9023   1.775  -0.175   4.375  0.0000  0.0000  0.0000
    11DUM    Ar 9024   1.625  -0.025   4.375  0.0000  0.0000  0.0000
    11DUM    Ar 9025   1.925  -0.175   4.225  0.0000  0.0000  0.0000
    11DUM    Ar 9026   2.075  -0.025   4.225  0.0000  0.0000  0.0000
    11DUM    Ar 9027   2.075  -0.175   4.375  0.0000  0.0000  0.0000
    11DUM    Ar 9028   1.925  -0.025   4.375  0.0000  0.0000  0.0000
    11DUM    Ar 9029   2.225  -0.175   4.225  0.0000  0.0000  0.0000
    11DUM    Ar 9030   2.375  -0.025   4.225  0.0000  0.0000  0.0000
    11DUM    Ar 9031   2.375  -0.175   4.375  0.0000  0.0000  0.0000
    11DUM    Ar 9032   2.225  -0.025   4.375  0.0000  0.0000  0.0000
    11DUM    Ar 9033   2.525  -0.175   4.225  0.0000  0.0000  0.0000
    11DUM    Ar 9034   2.675  -0.025   4.225  0.0000  0.0000  0.0000
    11DUM    Ar 9035   2.675  -0.175   4.375  0.0000  0.0000  0.0000
    11DUM    Ar 9036   2.525  -0.025   4.375  0.0000  0.0000  0.0000
    11DUM    Ar 9037   2.825  -0.175   4.225  0.0000  0.0000  0.0000
    11DUM    Ar 9038   2.975  -0.025   4.225  0.0000  0.0000  0.0000
    11DUM    Ar 9039   2.975  -0.175   4.375  0.0000  0.0000  0.0000
    11DUM    Ar 9040   2.825  -0.025   4.375  0.0000  0.0000  0.0000
    11DUM    Ar 9041   3.125  -0.175   4.225  0.0000  0.0000  0.0000
    11DUM    Ar 9042   3.275  -0.025   4.225  0.0000  0.0000  0.0000
    11DUM    Ar 9043   3.275  -0.175   4.375  0.0000  0.0000  0.0000
    11DUM    Ar 9044   3.125  -0.025   4.375  0.0000  0.0000  0.0000
    11DUM    Ar 9045   3.425  -0.175   4.225  0.0000  0.0000  0.0000
    11DUM    Ar 9046   3.575  -0.025   4.225  0.0000  0.0000  0.0000
    11DUM    Ar 9047   3.575  -0.175   4.375  0.0000  0.0000  0.0000
    11DUM    Ar 9048   3.425  -0.025   4.375  0.0000  0.0000  0.0000
    11DUM    Ar 9049   3.725  -0.175   4.225  0.0000  0.0000  0.0000
    11DUM    Ar 9050   3.875  -0.025   4.225  0.0000  0.0000  0.0000
    11DUM    Ar 9051   3.875  -0.175   4.375  0.0000  0.0000  0.0000
    11DUM    Ar 9052   3.725  -0.025   4.375  0.0000  0.0000  0.0000
    11DUM    Ar 9053   4.025  -0.175   4.225  0.0000  0.0000  0.0000
    11DUM    Ar 9054   4.175  -0.025   4.225  0.0000  0.0000  0.0000
    11DUM    Ar 9055   4.175  -0.175   4.375  0.0000  0.0000  0.0000
    11DUM    Ar 9056   4.025  -0.025   4.375  0.0000  0.0000  0.0000
    11DUM    Ar 9057  -0.175   0.125   4.225  0.0000  0.0000  0.0000
    11DUM    Ar 9058  -0.025   0.275   4.225  0.0000  0.0000  0.0000
    11DUM    Ar 9059  -0.025   0.125   4.375  0.0000  0.0000  0.0000
    11DUM    Ar 9060  -0.175   0.275   4.375  0.0000  0.0000  0.0000
    11DUM    Ar 9061   0.125   0.125   4.225  0.0000  0.0000  0.0000
    11DUM    Ar 9062   0.275   0.275   4.225  0.0000  0.0000  0.0000
    11DUM    Ar 9063   0.275   0.125   4.375  0.0000  0.0000  0.0000
    11DUM    Ar 9064   0.125   0.275   4.375  0.0000  0.0000  0.0000
    11DUM    Ar 9065   0.425   0.125   4.225  0.0000  0.0000  0.0000
    11DUM    Ar 9066   0.575   0.275   4.225  0.0000  0.0000  0.0000
    11DUM    Ar 9067   0.575   0.125   4.375  0.0000  0.0000  0.0000
    11DUM    Ar 9068   0.425   0.275   4.375  0.0000  0.0000  0.0000
    11DUM    Ar 9069   0.725   0.125   4.225  0.0000  0.0000  0.0000
    11DUM    Ar 9070   0.875   0.275   4.225  0.0000  0.0000  0.0000
    11DUM    Ar 9071   0.875   0.125   4.375  0.0000  0.0000  0.0000
    11DUM    Ar 9072   0.725   0.275   4.375  0.0000  0.0000  0.0000
    11DUM    Ar 9073   1.025   0.125   4.225  0.0000  0.0000  0.0000
    11DUM    Ar 9074   1.175   0.275   4.225  0.0000  0.0000  0.0000
    11DUM    Ar 9075   1.175   0.125   4.375  0.0000  0.0000  0.0000
    11DUM    Ar 9076   1.025   0.275   4.375  0.0000  0.0000  0.0000
    11DUM    Ar 9077   1.325   0.125   4.225  0.0000  0.0000  0.0000
    11DUM    Ar 9078   1.475   0.275   4.225  0.0000  0.0000  0.0000
    11DUM    Ar 9079   1.475   0.125   4.375  0.0000  0.0000  0.0000
    11DUM    Ar 9080   1.325   0.275   4.375  0.0000  0.0000  0.0000
    11DUM    Ar 9081   1.625   0.125   4.225  0.0000  0.0000  0.0000
    11DUM    Ar 9082   1.775   0.275   4.225  0.0000  0.0000  0.0000
    11DUM    Ar 9083   1.775   0.125   4.375  0.0000  0.0000  0.0000
    11DUM    Ar 9084   1.625   0.275   4.375  0.0000  0.0000  0.0000
    11DUM    Ar 9085   1.925   0.125   4.225  0.0000  0.0000  0.0000
    11DUM    Ar 9086   2.075   0.275   4.225  0.0000  0.0000  0.0000
    11DUM    Ar 9087   2.075   0.125   4.375  0.0000  0.0000  0.0000
    11DUM    Ar 9088   1.925   0.275   4.375  0.0000  0.0000  0.0000
    11DUM    Ar 9089   2.225   0.125   4.225  0.0000  0.0000  0.0000
    11DUM    Ar 9090   2.375   0.275   4.225  0.0000  0.0000  0.0000
    11DUM    Ar 9091   2.375   0.125   4.375  0.0000  0.0000  0.0000
    11DUM    Ar 9092   2.225   0.275   4.375  0.0000  0.0000  0.0000
    11DUM    Ar 9093   2.525   0.125   4.225  0.0000  0.0000  0.0000
    11DUM    Ar 9094   2.675   0.275   4.225  0.0000  0.0000  0.0000
    11DUM    Ar 9095   2.675   0.125   4.375  0.0000  0.0000  0.0000
    11DUM    Ar 9096   2.525   0.275   4.375  0.0000  0.0000  0.0000
    11DUM    Ar 9097   2.825   0.125   4.225  0.0000  0.0000  0.0000
    11DUM    Ar 9098   2.975   0.275   4.225  0.0000  0.0000  0.0000
    11DUM    Ar 9099   2.975   0.125   4.375  0.0000  0.0000  0.0000
    11DUM    Ar 9100   2.825   0.275   4.375  0.0000  0.0000  0.0000
    11DUM    Ar 9101   3.125   0.125   4.225  0.0000  0.0000  0.0000
    11DUM    Ar 9102   3.275   0.275   4.225  0.0000  0.0000  0.0000
    11DUM    Ar 9103   3.275   0.125   4.375  0.0000  0.0000  0.0000
    11DUM    Ar 9104   3.125   0.275   4.375  0.0000  0.0000  0.0000
    11DUM    Ar 9105   3.425   0.125   4.225  0.0000  0.0000  0.0000
    11DUM    Ar 9106   3.575   0.275   4.225  0.0000  0.0000  0.0000
    11DUM    Ar 9107   3.575   0.125   4.375  0.0000  0.0000  0.0000
    11DUM    Ar 9108   3.425   0.275   4.375  0.0000  0.0000  0.0000
    11DUM    Ar 9109   3.725   0.125   4.225  0.0000  0.0000  0.0000
    11DUM    Ar 9110   3.875   0.275   4.225  0.0000  0.0000  0.0000
    11DUM    Ar 9111   3.875   0.125   4.375  0.0000  0.0000  0.0000
    11DUM    Ar 9112   3.725   0.275   4.375  0.0000  0.0000  0.0000
    11DUM    Ar 9113   4.025   0.125   4.225  0.0000  0.0000  0.0000
    11DUM    Ar 9114   4.175   0.275   4.225  0.0000  0.0000  0.0000
    11DUM    Ar 9115   4.175   0.125   4.375  0.0000  0.0000  0.0000
    11DUM    Ar 9116   4.025   0.275   4.375  0.0000  0.0000  0.0000
    11DUM    Ar 9117  -0.175   0.425   4.225  0.0000  0.0000  0.0000
    11DUM    Ar 9118  -0.025   0.575   4.225  0.0000  0.0000  0.0000
    11DUM    Ar 9119  -0.025   0.425   4.375  0.0000  0.0000  0.0000
    11DUM    Ar 9120  -0.175   0.575   4.375  0.0000  0.0000  0.0000
    11DUM    Ar 9121   0.125   0.425   4.225  0.0000  0.0000  0.0000
    11DUM    Ar 9122   0.275   0.575   4.225  0.0000  0.0000  0.0000
    11DUM    Ar 9123   0.275   0.425   4.375  0.0000  0.0000  0.0000
    11DUM    Ar 9124   0.125   0.575   4.375  0.0000  0.0000  0.0000
    11DUM    Ar 9125   0.425   0.425   4.225  0.0000  0.0000  0.0000
    11DUM    Ar 9126   0.575   0.425   4.375  0.0000  0.0000  0.0000
    11DUM    Ar 9127   0.425   0.575   4.375  0.0000  0.0000  0.0000
    11DUM    Ar 9128   0.725   0.425   4.225  0.0000  0.0000  0.0000
    11DUM    Ar 9129   1.325   0.425   4.225  0.0000  0.0000  0.0000
    11DUM    Ar 9130   1.475   0.575   4.225  0.0000  0.0000  0.0000
    11DUM    Ar 9131   1.475   0.425   4.375  0.0000  0.0000  0.0000
    11DUM    Ar 9132   1.625   0.425   4.225  0.0000  0.0000  0.0000
    11DUM    Ar 9133   1.775   0.575   4.225  0.0000  0.0000  0.0000
    11DUM    Ar 9134   1.775   0.425   4.375  0.0000  0.0000  0.0000
    11DUM    Ar 9135   1.625   0.575   4.375  0.0000  0.0000  0.0000
    11DUM    Ar 9136   1.925   0.425   4.225  0.0000  0.0000  0.0000
    11DUM    Ar 9137   2.075   0.575   4.225  0.0000  0.0000  0.0000
    11DUM    Ar 9138   2.075   0.425   4.375  0.0000  0.0000  0.0000
    11DUM    Ar 9139   1.925   0.575   4.375  0.0000  0.0000  0.0000
    11DUM    Ar 9140   2.225   0.425   4.225  0.0000  0.0000  0.0000
    11DUM    Ar 9141   2.375   0.575   4.225  0.0000  0.0000  0.0000
    11DUM    Ar 9142   2.375   0.425   4.375  0.0000  0.0000  0.0000
    11DUM    Ar 9143   2.225   0.575   4.375  0.0000  0.0000  0.0000
    11DUM    Ar 9144   2.525   0.425   4.225  0.0000  0.0000  0.0000
    11DUM    Ar 9145   2.675   0.425   4.375  0.0000  0.0000  0.0000
    11DUM    Ar 9146   2.525   0.575   4.375  0.0000  0.0000  0.0000
    11DUM    Ar 9147   3.275   0.425   4.375  0.0000  0.0000  0.0000
    11DUM    Ar 9148   3.425   0.425   4.225  0.0000  0.0000  0.0000
    11DUM    Ar 9149   3.575   0.575   4.225  0.0000  0.0000  0.0000
    11DUM    Ar 9150   3.575   0.425   4.375  0.0000  0.0000  0.0000
    11DUM    Ar 9151   3.725   0.425   4.225  0.0000  0.0000  0.0000
    11DUM    Ar 9152   3.875   0.575   4.225  0.0000  0.0000  0.0000
    11DUM    Ar 9153   3.875   0.425   4.375  0.0000  0.0000  0.0000
    11DUM    Ar 9154   3.725   0.575   4.375  0.0000  0.0000  0.0000
    11DUM    Ar 9155   4.025   0.425   4.225  0.0000  0.0000  0.0000
    11DUM    Ar 9156   4.175   0.575   4.225  0.0000  0.0000  0.0000
    11DUM    Ar 9157   4.175   0.425   4.375  0.0000  0.0000  0.0000
    11DUM    Ar 9158   4.025   0.575   4.375  0.0000  0.0000  0.0000
    11DUM    Ar 9159  -0.175   0.725   4.225  0.0000  0.0000  0.0000
    11DUM    Ar 9160  -0.025   0.875   4.225  0.0000  0.0000  0.0000
    11DUM    Ar 9161  -0.025   0.725   4.375  0.0000  0.0000  0.0000
    11DUM    Ar 9162  -0.175   0.875   4.375  0.0000  0.0000  0.0000
    11DUM    Ar 9163   0.125   0.725   4.225  0.0000  0.0000  0.0000
    11DUM    Ar 9164   0.275   0.875   4.225  0.0000  0.0000  0.0000
    11DUM    Ar 9165   0.275   0.725   4.375  0.0000  0.0000  0.0000
    11DUM    Ar 9166   0.125   0.875   4.375  0.0000  0.0000  0.0000
    11DUM    Ar 9167   0.425   0.725   4.225  0.0000  0.0000  0.0000
    11DUM    Ar 9168   1.625   0.725   4.225  0.0000  0.0000  0.0000
    11DUM    Ar 9169   1.775   0.875   4.225  0.0000  0.0000  0.0000
    11DUM    Ar 9170   1.775   0.725   4.375  0.0000  0.0000  0.0000
    11DUM    Ar 9171   1.625   0.875   4.375  0.0000  0.0000  0.0000
    11DUM    Ar 9172   1.925   0.725   4.225  0.0000  0.0000  0.0000
    11DUM    Ar 9173   2.075   0.875   4.225  0.0000  0.0000  0.0000
    11DUM    Ar 9174   2.075   0.725   4.375  0.0000  0.0000  0.0000
    11DUM    Ar 9175   1.925   0.875   4.375  0.0000  0.0000  0.0000
    11DUM    Ar 9176   2.225   0.725   4.225  0.0000  0.0000  0.0000
    11DUM    Ar 9177   2.375   0.875   4.225  0.0000  0.0000  0.0000
    11DUM    Ar 9178   2.375   0.725   4.375  0.0000  0.0000  0.0000
    11DUM    Ar 9179   2.225   0.875   4.375  0.0000  0.0000  0.0000
    11DUM    Ar 9180   3.575   0.725   4.375  0.0000  0.0000  0.0000
    11DUM    Ar 9181   3.725   0.725   4.225  0.0000  0.0000  0.0000
    11DUM    Ar 9182   3.875   0.875   4.225  0.0000  0.0000  0.0000
    11DUM    Ar 9183   3.875   0.725   4.375  0.0000  0.0000  0.0000
    11DUM    Ar 9184   3.725   0.875   4.375  0.0000  0.0000  0.0000
    11DUM    Ar 9185   4.025   0.725   4.225  0.0000  0.0000  0.0000
    11DUM    Ar 9186   4.175   0.875   4.225  0.0000  0.0000  0.0000
    11DUM    Ar 9187   4.175   0.725   4.375  0.0000  0.0000  0.0000
    11DUM    Ar 9188   4.025   0.875   4.375  0.0000  0.0000  0.0000
    11DUM    Ar 9189  -0.175   1.025   4.225  0.0000  0.0000  0.0000
    11DUM    Ar 9190  -0.025   1.175   4.225  0.0000  0.0000  0.0000
    11DUM    Ar 9191  -0.025   1.025   4.375  0.0000  0.0000  0.0000
    11DUM    Ar 9192  -0.175   1.175   4.375  0.0000  0.0000  0.0000
    11DUM    Ar 9193   0.125   1.025   4.225  0.0000  0.0000  0.0000
    11DUM    Ar 9194   0.275   1.175   4.225  0.0000  0.0000  0.0000
    11DUM    Ar 9195   0.275   1.025   4.375  0.0000  0.0000  0.0000
    11DUM    Ar 9196   0.125   1.175   4.375  0.0000  0.0000  0.0000
    11DUM    Ar 9197   1.625   1.025   4.225  0.0000  0.0000  0.0000
    11DUM    Ar 9198   1.775   1.175   4.225  0.0000  0.0000  0.0000
    11DUM    Ar 9199   1.775   1.025   4.375  0.0000  0.0000  0.0000
    11DUM    Ar 9200   1.625   1.175   4.375  0.0000  0.0000  0.0000
    11DUM    Ar 9201   1.925   1.025   4.225  0.0000  0.0000  0.0000
    11DUM    Ar 9202   2.075   1.175   4.225  0.0000  0.0000  0.0000
    11DUM    Ar 9203   2.075   1.025   4.375  0.0000  0.0000  0.0000
    11DUM    Ar 9204   1.925   1.175   4.375  0.0000  0.0000  0.0000
    11DUM    Ar 9205   2.225   1.025   4.225  0.0000  0.0000  0.0000
    11DUM    Ar 9206   2.375   1.175   4.225  0.0000  0.0000  0.0000
    11DUM    Ar 9207   2.375   1.025   4.375  0.0000  0.0000  0.0000
    11DUM    Ar 9208   2.225   1.175   4.375  0.0000  0.0000  0.0000
    11DUM    Ar 9209   3.725   1.025   4.225  0.0000  0.0000  0.0000
    11DUM    Ar 9210   3.875   1.175   4.225  0.0000  0.0000  0.0000
    11DUM    Ar 9211   3.875   1.025   4.375  0.0000  0.0000  0.0000
    11DUM    Ar 9212   3.725   1.175   4.375  0.0000  0.0000  0.0000
    11DUM    Ar 9213   4.025   1.025   4.225  0.0000  0.0000  0.0000
    11DUM    Ar 9214   4.175   1.175   4.225  0.0000  0.0000  0.0000
    11DUM    Ar 9215   4.175   1.025   4.375  0.0000  0.0000  0.0000
    11DUM    Ar 9216   4.025   1.175   4.375  0.0000  0.0000  0.0000
    11DUM    Ar 9217  -0.175   1.325   4.225  0.0000  0.0000  0.0000
    11DUM    Ar 9218  -0.025   1.475   4.225  0.0000  0.0000  0.0000
    11DUM    Ar 9219  -0.025   1.325   4.375  0.0000  0.0000  0.0000
    11DUM    Ar 9220  -0.175   1.475   4.375  0.0000  0.0000  0.0000
    11DUM    Ar 9221   0.125   1.325   4.225  0.0000  0.0000  0.0000
    11DUM    Ar 9222   0.275   1.475   4.225  0.0000  0.0000  0.0000
    11DUM    Ar 9223   0.275   1.325   4.375  0.0000  0.0000  0.0000
    11DUM    Ar 9224   0.125   1.475   4.375  0.0000  0.0000  0.0000
    11DUM    Ar 9225   0.425   1.325   4.225  0.0000  0.0000  0.0000
    11DUM    Ar 9226   0.575   1.475   4.225  0.0000  0.0000  0.0000
    11DUM    Ar 9227   0.425   1.475   4.375  0.0000  0.0000  0.0000
    11DUM    Ar 9228   1.475   1.475   4.225  0.0000  0.0000  0.0000
    11DUM    Ar 9229   1.625   1.325   4.225  0.0000  0.0000  0.0000
    11DUM    Ar 9230   1.775   1.475   4.225  0.0000  0.0000  0.0000
    11DUM    Ar 9231   1.775   1.325   4.375  0.0000  0.0000  0.0000
    11DUM    Ar 9232   1.625   1.475   4.375  0.0000  0.0000  0.0000
    11DUM    Ar 9233   1.925   1.325   4.225  0.0000  0.0000  0.0000
    11DUM    Ar 9234   2.075   1.475   4.225  0.0000  0.0000  0.0000
    11DUM    Ar 9235   2.075   1.325   4.375  0.0000  0.0000  0.0000
    11DUM    Ar 9236   1.925   1.475   4.375  0.0000  0.0000  0.0000
    11DUM    Ar 9237   2.225   1.325   4.225  0.0000  0.0000  0.0000
    11DUM    Ar 9238   2.375   1.475   4.225  0.0000  0.0000  0.0000
    11DUM    Ar 9239   2.375   1.325   4.375  0.0000  0.0000  0.0000
    11DUM    Ar 9240   2.225   1.475   4.375  0.0000  0.0000  0.0000
    11DUM    Ar 9241   2.525   1.475   4.375  0.0000  0.0000  0.0000
    11DUM    Ar 9242   3.575   1.475   4.225  0.0000  0.0000  0.0000
    11DUM    Ar 9243   3.575   1.325   4.375  0.0000  0.0000  0.0000
    11DUM    Ar 9244   3.425   1.475   4.375  0.0000  0.0000  0.0000
    11DUM    Ar 9245   3.725   1.325   4.225  0.0000  0.0000  0.0000
    11DUM    Ar 9246   3.875   1.475   4.225  0.0000  0.0000  0.0000
    11DUM    Ar 9247   3.875   1.325   4.375  0.0000  0.0000  0.0000
    11DUM    Ar 9248   3.725   1.475   4.375  0.0000  0.0000  0.0000
    11DUM    Ar 9249   4.025   1.325   4.225  0.0000  0.0000  0.0000
    11DUM    Ar 9250   4.175   1.475   4.225  0.0000  0.0000  0.0000
    11DUM    Ar 9251   4.175   1.325   4.375  0.0000  0.0000  0.0000
    11DUM    Ar 9252   4.025   1.475   4.375  0.0000  0.0000  0.0000
    11DUM    Ar 9253  -0.175   1.625   4.225  0.0000  0.0000  0.0000
    11DUM    Ar 9254  -0.025   1.775   4.225  0.0000  0.0000  0.0000
    11DUM    Ar 9255  -0.025   1.625   4.375  0.0000  0.0000  0.0000
    11DUM    Ar 9256  -0.175   1.775   4.375  0.0000  0.0000  0.0000
    11DUM    Ar 9257   0.125   1.625   4.225  0.0000  0.0000  0.0000
    11DUM    Ar 9258   0.275   1.775   4.225  0.0000  0.0000  0.0000
    11DUM    Ar 9259   0.275   1.625   4.375  0.0000  0.0000  0.0000
    11DUM    Ar 9260   0.125   1.775   4.375  0.0000  0.0000  0.0000
    11DUM    Ar 9261   0.425   1.625   4.225  0.0000  0.0000  0.0000
    11DUM    Ar 9262   0.575   1.775   4.225  0.0000  0.0000  0.0000
    11DUM    Ar 9263   0.575   1.625   4.375  0.0000  0.0000  0.0000
    11DUM    Ar 9264   0.425   1.775   4.375  0.0000  0.0000  0.0000
    11DUM    Ar 9265   0.725   1.625   4.225  0.0000  0.0000  0.0000
    11DUM    Ar 9266   0.875   1.775   4.225  0.0000  0.0000  0.0000
    11DUM    Ar 9267   0.875   1.625   4.375  0.0000  0.0000  0.0000
    11DUM    Ar 9268   0.725   1.775   4.375  0.0000  0.0000  0.0000
    11DUM    Ar 9269   1.025   1.625   4.225  0.0000  0.0000  0.0000
    11DUM    Ar 9270   1.175   1.775   4.225  0.0000  0.0000  0.0000
    11DUM    Ar 9271   1.175   1.625   4.375  0.0000  0.0000  0.0000
    11DUM    Ar 9272   1.025   1.775   4.375  0.0000  0.0000  0.0000
    11DUM    Ar 9273   1.325   1.625   4.225  0.0000  0.0000  0.0000
    11DUM    Ar 9274   1.475   1.775   4.225  0.0000  0.0000  0.0000
    11DUM    Ar 9275   1.475   1.625   4.375  0.0000  0.0000  0.0000
    11DUM    Ar 9276   1.325   1.775   4.375  0.0000  0.0000  0.0000
    11DUM    Ar 9277   1.625   1.625   4.225  0.0000  0.0000  0.0000
    11DUM    Ar 9278   1.775   1.775   4.225  0.0000  0.0000  0.0000
    11DUM    Ar 9279   1.775   1.625   4.375  0.0000  0.0000  0.0000
    11DUM    Ar 9280   1.625   1.775   4.375  0.0000  0.0000  0.0000
    11DUM    Ar 9281   1.925   1.625   4.225  0.0000  0.0000  0.0000
    11DUM    Ar 9282   2.075   1.775   4.225  0.0000  0.0000  0.0000
    11DUM    Ar 9283   2.075   1.625   4.375  0.0000  0.0000  0.0000
    11DUM    Ar 9284   1.925   1.775   4.375  0.0000  0.0000  0.0000
    11DUM    Ar 9285   2.225   1.625   4.225  0.0000  0.0000  0.0000
    11DUM    Ar 9286   2.375   1.775   4.225  0.0000  0.0000  0.0000
    11DUM    Ar 9287   2.375   1.625   4.375  0.0000  0.0000  0.0000
    11DUM    Ar 9288   2.225   1.775   4.375  0.0000  0.0000  0.0000
    11DUM    Ar 9289   2.525   1.625   4.225  0.0000  0.0000  0.0000
    11DUM    Ar 9290   2.675   1.775   4.225  0.0000  0.0000  0.0000
    11DUM    Ar 9291   2.675   1.625   4.375  0.0000  0.0000  0.0000
    11DUM    Ar 9292   2.525   1.775   4.375  0.0000  0.0000  0.0000
    11DUM    Ar 9293   2.825   1.625   4.225  0.0000  0.0000  0.0000
    11DUM    Ar 9294   2.975   1.775   4.225  0.0000  0.0000  0.0000
    11DUM    Ar 9295   2.975   1.625   4.375  0.0000  0.0000  0.0000
    11DUM    Ar 9296   2.825   1.775   4.375  0.0000  0.0000  0.0000
    11DUM    Ar 9297   3.125   1.625   4.225  0.0000  0.0000  0.0000
    11DUM    Ar 9298   3.275   1.775   4.225  0.0000  0.0000  0.0000
    11DUM    Ar 9299   3.275   1.625   4.375  0.0000  0.0000  0.0000
    11DUM    Ar 9300   3.125   1.775   4.375  0.0000  0.0000  0.0000
    11DUM    Ar 9301   3.425   1.625   4.225  0.0000  0.0000  0.0000
    11DUM    Ar 9302   3.575   1.775   4.225  0.0000  0.0000  0.0000
    11DUM    Ar 9303   3.575   1.625   4.375  0.0000  0.0000  0.0000
    11DUM    Ar 9304   3.425   1.775   4.375  0.0000  0.0000  0.0000
    11DUM    Ar 9305   3.725   1.625   4.225  0.0000  0.0000  0.0000
    11DUM    Ar 9306   3.875   1.775   4.225  0.0000  0.0000  0.0000
    11DUM    Ar 9307   3.875   1.625   4.375  0.0000  0.0000  0.0000
    11DUM    Ar 9308   3.725   1.775   4.375  0.0000  0.0000  0.0000
    11DUM    Ar 9309   4.025   1.625   4.225  0.0000  0.0000  0.0000
    11DUM    Ar 9310   4.175   1.775   4.225  0.0000  0.0000  0.0000
    11DUM    Ar 9311   4.175   1.625   4.375  0.0000  0.0000  0.0000
    11DUM    Ar 9312   4.025   1.775   4.375  0.0000  0.0000  0.0000
    11DUM    Ar 9313  -0.175   1.925   4.225  0.0000  0.0000  0.0000
    11DUM    Ar 9314  -0.025   2.075   4.225  0.0000  0.0000  0.0000
    11DUM    Ar 9315  -0.025   1.925   4.375  0.0000  0.0000  0.0000
    11DUM    Ar 9316  -0.175   2.075   4.375  0.0000  0.0000  0.0000
    11DUM    Ar 9317   0.125   1.925   4.225  0.0000  0.0000  0.0000
    11DUM    Ar 9318   0.275   2.075   4.225  0.0000  0.0000  0.0000
    11DUM    Ar 9319   0.275   1.925   4.375  0.0000  0.0000  0.0000
    11DUM    Ar 9320   0.125   2.075   4.375  0.0000  0.0000  0.0000
    11DUM    Ar 9321   0.425   1.925   4.225  0.0000  0.0000  0.0000
    11DUM    Ar 9322   0.575   2.075   4.225  0.0000  0.0000  0.0000
    11DUM    Ar 9323   0.575   1.925   4.375  0.0000  0.0000  0.0000
    11DUM    Ar 9324   0.425   2.075   4.375  0.0000  0.0000  0.0000
    11DUM    Ar 9325   0.725   1.925   4.225  0.0000  0.0000  0.0000
    11DUM    Ar 9326   0.875   2.075   4.225  0.0000  0.0000  0.0000
    11DUM    Ar 9327   0.875   1.925   4.375  0.0000  0.0000  0.0000
    11DUM    Ar 9328   0.725   2.075   4.375  0.0000  0.0000  0.0000
    11DUM    Ar 9329   1.025   1.925   4.225  0.0000  0.0000  0.0000
    11DUM    Ar 9330   1.175   2.075   4.225  0.0000  0.0000  0.0000
    11DUM    Ar 9331   1.175   1.925   4.375  0.0000  0.0000  0.0000
    11DUM    Ar 9332   1.025   2.075   4.375  0.0000  0.0000  0.0000
    11DUM    Ar 9333   1.325   1.925   4.225  0.0000  0.0000  0.0000
    11DUM    Ar 9334   1.475   2.075   4.225  0.0000  0.0000  0.0000
    11DUM    Ar 9335   1.475   1.925   4.375  0.0000  0.0000  0.0000
    11DUM    Ar 9336   1.325   2.075   4.375  0.0000  0.0000  0.0000
    11DUM    Ar 9337   1.625   1.925   4.225  0.0000  0.0000  0.0000
    11DUM    Ar 9338   1.775   2.075   4.225  0.0000  0.0000  0.0000
    11DUM    Ar 9339   1.775   1.925   4.375  0.0000  0.0000  0.0000
    11DUM    Ar 9340   1.625   2.075   4.375  0.0000  0.0000  0.0000
    11DUM    Ar 9341   1.925   1.925   4.225  0.0000  0.0000  0.0000
    11DUM    Ar 9342   2.075   2.075   4.225  0.0000  0.0000  0.0000
    11DUM    Ar 9343   2.075   1.925   4.375  0.0000  0.0000  0.0000
    11DUM    Ar 9344   1.925   2.075   4.375  0.0000  0.0000  0.0000
    11DUM    Ar 9345   2.225   1.925   4.225  0.0000  0.0000  0.0000
    11DUM    Ar 9346   2.375   2.075   4.225  0.0000  0.0000  0.0000
    11DUM    Ar 9347   2.375   1.925   4.375  0.0000  0.0000  0.0000
    11DUM    Ar 9348   2.225   2.075   4.375  0.0000  0.0000  0.0000
    11DUM    Ar 9349   2.525   1.925   4.225  0.0000  0.0000  0.0000
    11DUM    Ar 9350   2.675   2.075   4.225  0.0000  0.0000  0.0000
    11DUM    Ar 9351   2.675   1.925   4.375  0.0000  0.0000  0.0000
    11DUM    Ar 9352   2.525   2.075   4.375  0.0000  0.0000  0.0000
    11DUM    Ar 9353   2.825   1.925   4.225  0.0000  0.0000  0.0000
    11DUM    Ar 9354   2.975   2.075   4.225  0.0000  0.0000  0.0000
    11DUM    Ar 9355   2.975   1.925   4.375  0.0000  0.0000  0.0000
    11DUM    Ar 9356   2.825   2.075   4.375  0.0000  0.0000  0.0000
    11DUM    Ar 9357   3.125   1.925   4.225  0.0000  0.0000  0.0000
    11DUM    Ar 9358   3.275   2.075   4.225  0.0000  0.0000  0.0000
    11DUM    Ar 9359   3.275   1.925   4.375  0.0000  0.0000  0.0000
    11DUM    Ar 9360   3.125   2.075   4.375  0.0000  0.0000  0.0000
    11DUM    Ar 9361   3.425   1.925   4.225  0.0000  0.0000  0.0000
    11DUM    Ar 9362   3.575   2.075   4.225  0.0000  0.0000  0.0000
    11DUM    Ar 9363   3.575   1.925   4.375  0.0000  0.0000  0.0000
    11DUM    Ar 9364   3.425   2.075   4.375  0.0000  0.0000  0.0000
    11DUM    Ar 9365   3.725   1.925   4.225  0.0000  0.0000  0.0000
    11DUM    Ar 9366   3.875   2.075   4.225  0.0000  0.0000  0.0000
    11DUM    Ar 9367   3.875   1.925   4.375  0.0000  0.0000  0.0000
    11DUM    Ar 9368   3.725   2.075   4.375  0.0000  0.0000  0.0000
    11DUM    Ar 9369   4.025   1.925   4.225  0.0000  0.0000  0.0000
    11DUM    Ar 9370   4.175   2.075   4.225  0.0000  0.0000  0.0000
    11DUM    Ar 9371   4.175   1.925   4.375  0.0000  0.0000  0.0000
    11DUM    Ar 9372   4.025   2.075   4.375  0.0000  0.0000  0.0000
    11DUM    Ar 9373  -0.175   2.225   4.225  0.0000  0.0000  0.0000
    11DUM    Ar 9374  -0.025   2.375   4.225  0.0000  0.0000  0.0000
    11DUM    Ar 9375  -0.025   2.225   4.375  0.0000  0.0000  0.0000
    11DUM    Ar 9376  -0.175   2.375   4.375  0.0000  0.0000  0.0000
    11DUM    Ar 9377   0.125   2.225   4.225  0.0000  0.0000  0.0000
    11DUM    Ar 9378   0.275   2.375   4.225  0.0000  0.0000  0.0000
    11DUM    Ar 9379   0.275   2.225   4.375  0.0000  0.0000  0.0000
    11DUM    Ar 9380   0.125   2.375   4.375  0.0000  0.0000  0.0000
    11DUM    Ar 9381   0.425   2.225   4.225  0.0000  0.0000  0.0000
    11DUM    Ar 9382   0.575   2.375   4.225  0.0000  0.0000  0.0000
    11DUM    Ar 9383   0.575   2.225   4.375  0.0000  0.0000  0.0000
    11DUM    Ar 9384   0.425   2.375   4.375  0.0000  0.0000  0.0000
    11DUM    Ar 9385   0.725   2.225   4.225  0.0000  0.0000  0.0000
    11DUM    Ar 9386   0.875   2.375   4.225  0.0000  0.0000  0.0000
    11DUM    Ar 9387   0.875   2.225   4.375  0.0000  0.0000  0.0000
    11DUM    Ar 9388   0.725   2.375   4.375  0.0000  0.0000  0.0000
    11DUM    Ar 9389   1.025   2.225   4.225  0.0000  0.0000  0.0000
    11DUM    Ar 9390   1.175   2.375   4.225  0.0000  0.0000  0.0000
    11DUM    Ar 9391   1.175   2.225   4.375  0.0000  0.0000  0.0000
    11DUM    Ar 9392   1.025   2.375   4.375  0.0000  0.0000  0.0000
    11DUM    Ar 9393   1.325   2.225   4.225  0.0000  0.0000  0.0000
    11DUM    Ar 9394   1.475   2.375   4.225  0.0000  0.0000  0.0000
    11DUM    Ar 9395   1.475   2.225   4.375  0.0000  0.0000  0.0000
    11DUM    Ar 9396   1.325   2.375   4.375  0.0000  0.0000  0.0000
    11DUM    Ar 9397   1.625   2.225   4.225  0.0000  0.0000  0.0000
    11DUM    Ar 9398   1.775   2.375   4.225  0.0000  0.0000  0.0000
    11DUM    Ar 9399   1.775   2.225   4.375  0.0000  0.0000  0.0000
    11DUM    Ar 9400   1.625   2.375   4.375  0.0000  0.0000  0.0000
    11DUM    Ar 9401   1.925   2.225   4.225  0.0000  0.0000  0.0000
    11DUM    Ar 9402   2.075   2.375   4.225  0.0000  0.0000  0.0000
    11DUM    Ar 9403   2.075   2.225   4.375  0.0000  0.0000  0.0000
    11DUM    Ar 9404   1.925   2.375   4.375  0.0000  0.0000  0.0000
    11DUM    Ar 9405   2.225   2.225   4.225  0.0000  0.0000  0.0000
    11DUM    Ar 9406   2.375   2.375   4.225  0.0000  0.0000  0.0000
    11DUM    Ar 9407   2.375   2.225   4.375  0.0000  0.0000  0.0000
    11DUM    Ar 9408   2.225   2.375   4.375  0.0000  0.0000  0.0000
    11DUM    Ar 9409   2.525   2.225   4.225  0.0000  0.0000  0.0000
    11DUM    Ar 9410   2.675   2.375   4.225  0.0000  0.0000  0.0000
    11DUM    Ar 9411   2.675   2.225   4.375  0.0000  0.0000  0.0000
    11DUM    Ar 9412   2.525   2.375   4.375  0.0000  0.0000  0.0000
    11DUM    Ar 9413   2.825   2.225   4.225  0.0000  0.0000  0.0000
    11DUM    Ar 9414   2.975   2.375   4.225  0.0000  0.0000  0.0000
    11DUM    Ar 9415   2.975   2.225   4.375  0.0000  0.0000  0.0000
    11DUM    Ar 9416   2.825   2.375   4.375  0.0000  0.0000  0.0000
    11DUM    Ar 9417   3.125   2.225   4.225  0.0000  0.0000  0.0000
    11DUM    Ar 9418   3.275   2.375   4.225  0.0000  0.0000  0.0000
    11DUM    Ar 9419   3.275   2.225   4.375  0.0000  0.0000  0.0000
    11DUM    Ar 9420   3.125   2.375   4.375  0.0000  0.0000  0.0000
    11DUM    Ar 9421   3.425   2.225   4.225  0.0000  0.0000  0.0000
    11DUM    Ar 9422   3.575   2.375   4.225  0.0000  0.0000  0.0000
    11DUM    Ar 9423   3.575   2.225   4.375  0.0000  0.0000  0.0000
    11DUM    Ar 9424   3.425   2.375   4.375  0.0000  0.0000  0.0000
    11DUM    Ar 9425   3.725   2.225   4.225  0.0000  0.0000  0.0000
    11DUM    Ar 9426   3.875   2.375   4.225  0.0000  0.0000  0.0000
    11DUM    Ar 9427   3.875   2.225   4.375  0.0000  0.0000  0.0000
    11DUM    Ar 9428   3.725   2.375   4.375  0.0000  0.0000  0.0000
    11DUM    Ar 9429   4.025   2.225   4.225  0.0000  0.0000  0.0000
    11DUM    Ar 9430   4.175   2.375   4.225  0.0000  0.0000  0.0000
    11DUM    Ar 9431   4.175   2.225   4.375  0.0000  0.0000  0.0000
    11DUM    Ar 9432   4.025   2.375   4.375  0.0000  0.0000  0.0000
    11DUM    Ar 9433  -0.175   2.525   4.225  0.0000  0.0000  0.0000
    11DUM    Ar 9434  -0.025   2.675   4.225  0.0000  0.0000  0.0000
    11DUM    Ar 9435  -0.025   2.525   4.375  0.0000  0.0000  0.0000
    11DUM    Ar 9436  -0.175   2.675   4.375  0.0000  0.0000  0.0000
    11DUM    Ar 9437   0.125   2.525   4.225  0.0000  0.0000  0.0000
    11DUM    Ar 9438   0.275   2.675   4.225  0.0000  0.0000  0.0000
    11DUM    Ar 9439   0.275   2.525   4.375  0.0000  0.0000  0.0000
    11DUM    Ar 9440   0.125   2.675   4.375  0.0000  0.0000  0.0000
    11DUM    Ar 9441   0.425   2.525   4.225  0.0000  0.0000  0.0000
    11DUM    Ar 9442   0.575   2.525   4.375  0.0000  0.0000  0.0000
    11DUM    Ar 9443   0.425   2.675   4.375  0.0000  0.0000  0.0000
    11DUM    Ar 9444   1.475   2.525   4.375  0.0000  0.0000  0.0000
    11DUM    Ar 9445   1.625   2.525   4.225  0.0000  0.0000  0.0000
    11DUM    Ar 9446   1.775   2.675   4.225  0.0000  0.0000  0.0000
    11DUM    Ar 9447   1.775   2.525   4.375  0.0000  0.0000  0.0000
    11DUM    Ar 9448   1.625   2.675   4.375  0.0000  0.0000  0.0000
    11DUM    Ar 9449   1.925   2.525   4.225  0.0000  0.0000  0.0000
    11DUM    Ar 9450   2.075   2.675   4.225  0.0000  0.0000  0.0000
    11DUM    Ar 9451   2.075   2.525   4.375  0.0000  0.0000  0.0000
    11DUM    Ar 9452   1.925   2.675   4.375  0.0000  0.0000  0.0000
    11DUM    Ar 9453   2.225   2.525   4.225  0.0000  0.0000  0.0000
    11DUM    Ar 9454   2.375   2.675   4.225  0.0000  0.0000  0.0000
    11DUM    Ar 9455   2.375   2.525   4.375  0.0000  0.0000  0.0000
    11DUM    Ar 9456   2.225   2.675   4.375  0.0000  0.0000  0.0000
    11DUM    Ar 9457   2.525   2.525   4.225  0.0000  0.0000  0.0000
    11DUM    Ar 9458   3.425   2.525   4.225  0.0000  0.0000  0.0000
    11DUM    Ar 9459   3.575   2.675   4.225  0.0000  0.0000  0.0000
    11DUM    Ar 9460   3.575   2.525   4.375  0.0000  0.0000  0.0000
    11DUM    Ar 9461   3.725   2.525   4.225  0.0000  0.0000  0.0000
    11DUM    Ar 9462   3.875   2.675   4.225  0.0000  0.0000  0.0000
    11DUM    Ar 9463   3.875   2.525   4.375  0.0000  0.0000  0.0000
    11DUM    Ar 9464   3.725   2.675   4.375  0.0000  0.0000  0.0000
    11DUM    Ar 9465   4.025   2.525   4.225  0.0000  0.0000  0.0000
    11DUM    Ar 9466   4.175   2.675   4.225  0.0000  0.0000  0.0000
    11DUM    Ar 9467   4.175   2.525   4.375  0.0000  0.0000  0.0000
    11DUM    Ar 9468   4.025   2.675   4.375  0.0000  0.0000  0.0000
    11DUM    Ar 9469  -0.175   2.825   4.225  0.0000  0.0000  0.0000
    11DUM    Ar 9470  -0.025   2.975   4.225  0.0000  0.0000  0.0000
    11DUM    Ar 9471  -0.025   2.825   4.375  0.0000  0.0000  0.0000
    11DUM    Ar 9472  -0.175   2.975   4.375  0.0000  0.0000  0.0000
    11DUM    Ar 9473   0.125   2.825   4.225  0.0000  0.0000  0.0000
    11DUM    Ar 9474   0.275   2.975   4.225  0.0000  0.0000  0.0000
    11DUM    Ar 9475   0.275   2.825   4.375  0.0000  0.0000  0.0000
    11DUM    Ar 9476   0.125   2.975   4.375  0.0000  0.0000  0.0000
    11DUM    Ar 9477   1.625   2.825   4.225  0.0000  0.0000  0.0000
    11DUM    Ar 9478   1.775   2.975   4.225  0.0000  0.0000  0.0000
    11DUM    Ar 9479   1.775   2.825   4.375  0.0000  0.0000  0.0000
    11DUM    Ar 9480   1.625   2.975   4.375  0.0000  0.0000  0.0000
    11DUM    Ar 9481   1.925   2.825   4.225  0.0000  0.0000  0.0000
    11DUM    Ar 9482   2.075   2.975   4.225  0.0000  0.0000  0.0000
    11DUM    Ar 9483   2.075   2.825   4.375  0.0000  0.0000  0.0000
    11DUM    Ar 9484   1.925   2.975   4.375  0.0000  0.0000  0.0000
    11DUM    Ar 9485   2.225   2.825   4.225  0.0000  0.0000  0.0000
    11DUM    Ar 9486   2.375   2.975   4.225  0.0000  0.0000  0.0000
    11DUM    Ar 9487   2.375   2.825   4.375  0.0000  0.0000  0.0000
    11DUM    Ar 9488   2.225   2.975   4.375  0.0000  0.0000  0.0000
    11DUM    Ar 9489   3.725   2.825   4.225  0.0000  0.0000  0.0000
    11DUM    Ar 9490   3.875   2.975   4.225  0.0000  0.0000  0.0000
    11DUM    Ar 9491   3.875   2.825   4.375  0.0000  0.0000  0.0000
    11DUM    Ar 9492   3.725   2.975   4.375  0.0000  0.0000  0.0000
    11DUM    Ar 9493   4.025   2.825   4.225  0.0000  0.0000  0.0000
    11DUM    Ar 9494   4.175   2.975   4.225  0.0000  0.0000  0.0000
    11DUM    Ar 9495   4.175   2.825   4.375  0.0000  0.0000  0.0000
    11DUM    Ar 9496   4.025   2.975   4.375  0.0000  0.0000  0.0000
    11DUM    Ar 9497  -0.175   3.125   4.225  0.0000  0.0000  0.0000
    11DUM    Ar 9498  -0.025   3.275   4.225  0.0000  0.0000  0.0000
    11DUM    Ar 9499  -0.025   3.125   4.375  0.0000  0.0000  0.0000
    11DUM    Ar 9500  -0.175   3.275   4.375  0.0000  0.0000  0.0000
    11DUM    Ar 9501   0.125   3.125   4.225  0.0000  0.0000  0.0000
    11DUM    Ar 9502   0.275   3.275   4.225  0.0000  0.0000  0.0000
    11DUM    Ar 9503   0.275   3.125   4.375  0.0000  0.0000  0.0000
    11DUM    Ar 9504   0.125   3.275   4.375  0.0000  0.0000  0.0000
    11DUM    Ar 9505   0.425   3.275   4.375  0.0000  0.0000  0.0000
    11DUM    Ar 9506   1.625   3.125   4.225  0.0000  0.0000  0.0000
    11DUM    Ar 9507   1.775   3.275   4.225  0.0000  0.0000  0.0000
    11DUM    Ar 9508   1.775   3.125   4.375  0.0000  0.0000  0.0000
    11DUM    Ar 9509   1.625   3.275   4.375  0.0000  0.0000  0.0000
    11DUM    Ar 9510   1.925   3.125   4.225  0.0000  0.0000  0.0000
    11DUM    Ar 9511   2.075   3.275   4.225  0.0000  0.0000  0.0000
    11DUM    Ar 9512   2.075   3.125   4.375  0.0000  0.0000  0.0000
    11DUM    Ar 9513   1.925   3.275   4.375  0.0000  0.0000  0.0000
    11DUM    Ar 9514   2.225   3.125   4.225  0.0000  0.0000  0.0000
    11DUM    Ar 9515   2.375   3.275   4.225  0.0000  0.0000  0.0000
    11DUM    Ar 9516   2.375   3.125   4.375  0.0000  0.0000  0.0000
    11DUM    Ar 9517   2.225   3.275   4.375  0.0000  0.0000  0.0000
    11DUM    Ar 9518   3.575   3.275   4.225  0.0000  0.0000  0.0000
    11DUM    Ar 9519   3.725   3.125   4.225  0.0000  0.0000  0.0000
    11DUM    Ar 9520   3.875   3.275   4.225  0.0000  0.0000  0.0000
    11DUM    Ar 9521   3.875   3.125   4.375  0.0000  0.0000  0.0000
    11DUM    Ar 9522   3.725   3.275   4.375  0.0000  0.0000  0.0000
    11DUM    Ar 9523   4.025   3.125   4.225  0.0000  0.0000  0.0000
    11DUM    Ar 9524   4.175   3.275   4.225  0.0000  0.0000  0.0000
    11DUM    Ar 9525   4.175   3.125   4.375  0.0000  0.0000  0.0000
    11DUM    Ar 9526   4.025   3.275   4.375  0.0000  0.0000  0.0000
    11DUM    Ar 9527  -0.175   3.425   4.225  0.0000  0.0000  0.0000
    11DUM    Ar 9528  -0.025   3.575   4.225  0.0000  0.0000  0.0000
    11DUM    Ar 9529  -0.025   3.425   4.375  0.0000  0.0000  0.0000
    11DUM    Ar 9530  -0.175   3.575   4.375  0.0000  0.0000  0.0000
    11DUM    Ar 9531   0.125   3.425   4.225  0.0000  0.0000  0.0000
    11DUM    Ar 9532   0.275   3.575   4.225  0.0000  0.0000  0.0000
    11DUM    Ar 9533   0.275   3.425   4.375  0.0000  0.0000  0.0000
    11DUM    Ar 9534   0.125   3.575   4.375  0.0000  0.0000  0.0000
    11DUM    Ar 9535   0.425   3.425   4.225  0.0000  0.0000  0.0000
    11DUM    Ar 9536   0.575   3.575   4.225  0.0000  0.0000  0.0000
    11DUM    Ar 9537   0.425   3.575   4.375  0.0000  0.0000  0.0000
    11DUM    Ar 9538   0.725   3.575   4.375  0.0000  0.0000  0.0000
    11DUM    Ar 9539   1.475   3.575   4.225  0.0000  0.0000  0.0000
    11DUM    Ar 9540   1.475   3.425   4.375  0.0000  0.0000  0.0000
    11DUM    Ar 9541   1.325   3.575   4.375  0.0000  0.0000  0.0000
    11DUM    Ar 9542   1.625   3.425   4.225  0.0000  0.0000  0.0000
    11DUM    Ar 9543   1.775   3.575   4.225  0.0000  0.0000  0.0000
    11DUM    Ar 9544   1.775   3.425   4.375  0.0000  0.0000  0.0000
    11DUM    Ar 9545   1.625   3.575   4.375  0.0000  0.0000  0.0000
    11DUM    Ar 9546   1.925   3.425   4.225  0.0000  0.0000  0.0000
    11DUM    Ar 9547   2.075   3.575   4.225  0.0000  0.0000  0.0000
    11DUM    Ar 9548   2.075   3.425   4.375  0.0000  0.0000  0.0000
    11DUM    Ar 9549   1.925   3.575   4.375  0.0000  0.0000  0.0000
    11DUM    Ar 9550   2.225   3.425   4.225  0.0000  0.0000  0.0000
    11DUM    Ar 9551   2.375   3.575   4.225  0.0000  0.0000  0.0000
    11DUM    Ar 9552   2.375   3.425   4.375  0.0000  0.0000  0.0000
    11DUM    Ar 9553   2.225   3.575   4.375  0.0000  0.0000  0.0000
    11DUM    Ar 9554   2.525   3.425   4.225  0.0000  0.0000  0.0000
    11DUM    Ar 9555   2.675   3.575   4.225  0.0000  0.0000  0.0000
    11DUM    Ar 9556   2.525   3.575   4.375  0.0000  0.0000  0.0000
    11DUM    Ar 9557   3.275   3.575   4.225  0.0000  0.0000  0.0000
    11DUM    Ar 9558   3.575   3.575   4.225  0.0000  0.0000  0.0000
    11DUM    Ar 9559   3.575   3.425   4.375  0.0000  0.0000  0.0000
    11DUM    Ar 9560   3.425   3.575   4.375  0.0000  0.0000  0.0000
    11DUM    Ar 9561   3.725   3.425   4.225  0.0000  0.0000  0.0000
    11DUM    Ar 9562   3.875   3.575   4.225  0.0000  0.0000  0.0000
    11DUM    Ar 9563   3.875   3.425   4.375  0.0000  0.0000  0.0000
    11DUM    Ar 9564   3.725   3.575   4.375  0.0000  0.0000  0.0000
    11DUM    Ar 9565   4.025   3.425   4.225  0.0000  0.0000  0.0000
    11DUM    Ar 9566   4.175   3.575   4.225  0.0000  0.0000  0.0000
    11DUM    Ar 9567   4.175   3.425   4.375  0.0000  0.0000  0.0000
    11DUM    Ar 9568   4.025   3.575   4.375  0.0000  0.0000  0.0000
    11DUM    Ar 9569  -0.175   3.725   4.225  0.0000  0.0000  0.0000
    11DUM    Ar 9570  -0.025   3.875   4.225  0.0000  0.0000  0.0000
    11DUM    Ar 9571  -0.025   3.725   4.375  0.0000  0.0000  0.0000
    11DUM    Ar 9572  -0.175   3.875   4.375  0.0000  0.0000  0.0000
    11DUM    Ar 9573   0.125   3.725   4.225  0.0000  0.0000  0.0000
    11DUM    Ar 9574   0.275   3.875   4.225  0.0000  0.0000  0.0000
    11DUM    Ar 9575   0.275   3.725   4.375  0.0000  0.0000  0.0000
    11DUM    Ar 9576   0.125   3.875   4.375  0.0000  0.0000  0.0000
    11DUM    Ar 9577   0.425   3.725   4.225  0.0000  0.0000  0.0000
    11DUM    Ar 9578   0.575   3.875   4.225  0.0000  0.0000  0.0000
    11DUM    Ar 9579   0.575   3.725   4.375  0.0000  0.0000  0.0000
    11DUM    Ar 9580   0.425   3.875   4.375  0.0000  0.0000  0.0000
    11DUM    Ar 9581   0.725   3.725   4.225  0.0000  0.0000  0.0000
    11DUM    Ar 9582   0.875   3.875   4.225  0.0000  0.0000  0.0000
    11DUM    Ar 9583   0.875   3.725   4.375  0.0000  0.0000  0.0000
    11DUM    Ar 9584   0.725   3.875   4.375  0.0000  0.0000  0.0000
    11DUM    Ar 9585   1.025   3.725   4.225  0.0000  0.0000  0.0000
    11DUM    Ar 9586   1.175   3.875   4.225  0.0000  0.0000  0.0000
    11DUM    Ar 9587   1.175   3.725   4.375  0.0000  0.0000  0.0000
    11DUM    Ar 9588   1.025   3.875   4.375  0.0000  0.0000  0.0000
    11DUM    Ar 9589   1.325   3.725   4.225  0.0000  0.0000  0.0000
    11DUM    Ar 9590   1.475   3.875   4.225  0.0000  0.0000  0.0000
    11DUM    Ar 9591   1.475   3.725   4.375  0.0000  0.0000  0.0000
    11DUM    Ar 9592   1.325   3.875   4.375  0.0000  0.0000  0.0000
    11DUM    Ar 9593   1.625   3.725   4.225  0.0000  0.0000  0.0000
    11DUM    Ar 9594   1.775   3.875   4.225  0.0000  0.0000  0.0000
    11DUM    Ar 9595   1.775   3.725   4.375  0.0000  0.0000  0.0000
    11DUM    Ar 9596   1.625   3.875   4.375  0.0000  0.0000  0.0000
    11DUM    Ar 9597   1.925   3.725   4.225  0.0000  0.0000  0.0000
    11DUM    Ar 9598   2.075   3.875   4.225  0.0000  0.0000  0.0000
    11DUM    Ar 9599   2.075   3.725   4.375  0.0000  0.0000  0.0000
    11DUM    Ar 9600   1.925   3.875   4.375  0.0000  0.0000  0.0000
    11DUM    Ar 9601   2.225   3.725   4.225  0.0000  0.0000  0.0000
    11DUM    Ar 9602   2.375   3.875   4.225  0.0000  0.0000  0.0000
    11DUM    Ar 9603   2.375   3.725   4.375  0.0000  0.0000  0.0000
    11DUM    Ar 9604   2.225   3.875   4.375  0.0000  0.0000  0.0000
    11DUM    Ar 9605   2.525   3.725   4.225  0.0000  0.0000  0.0000
    11DUM    Ar 9606   2.675   3.875   4.225  0.0000  0.0000  0.0000
    11DUM    Ar 9607   2.675   3.725   4.375  0.0000  0.0000  0.0000
    11DUM    Ar 9608   2.525   3.875   4.375  0.0000  0.0000  0.0000
    11DUM    Ar 9609   2.825   3.725   4.225  0.0000  0.0000  0.0000
    11DUM    Ar 9610   2.975   3.875   4.225  0.0000  0.0000  0.0000
    11DUM    Ar 9611   2.975   3.725   4.375  0.0000  0.0000  0.0000
    11DUM    Ar 9612   2.825   3.875   4.375  0.0000  0.0000  0.0000
    11DUM    Ar 9613   3.125   3.725   4.225  0.0000  0.0000  0.0000
    11DUM    Ar 9614   3.275   3.875   4.225  0.0000  0.0000  0.0000
    11DUM    Ar 9615   3.275   3.725   4.375  0.0000  0.0000  0.0000
    11DUM    Ar 9616   3.125   3.875   4.375  0.0000  0.0000  0.0000
    11DUM    Ar 9617   3.425   3.725   4.225  0.0000  0.0000  0.0000
    11DUM    Ar 9618   3.575   3.875   4.225  0.0000  0.0000  0.0000
    11DUM    Ar 9619   3.575   3.725   4.375  0.0000  0.0000  0.0000
    11DUM    Ar 9620   3.425   3.875   4.375  0.0000  0.0000  0.0000
    11DUM    Ar 9621   3.725   3.725   4.225  0.0000  0.0000  0.0000
    11DUM    Ar 9622   3.875   3.875   4.225  0.0000  0.0000  0.0000
    11DUM    Ar 9623   3.875   3.725   4.375  0.0000  0.0000  0.0000
    11DUM    Ar 9624   3.725   3.875   4.375  0.0000  0.0000  0.0000
    11DUM    Ar 9625   4.025   3.725   4.225  0.0000  0.0000  0.0000
    11DUM    Ar 9626   4.175   3.875   4.225  0.0000  0.0000  0.0000
    11DUM    Ar 9627   4.175   3.725   4.375  0.0000  0.0000  0.0000
    11DUM    Ar 9628   4.025   3.875   4.375  0.0000  0.0000  0.0000
    11DUM    Ar 9629  -0.175   4.025   4.225  0.0000  0.0000  0.0000
    11DUM    Ar 9630  -0.025   4.175   4.225  0.0000  0.0000  0.0000
    11DUM    Ar 9631  -0.025   4.025   4.375  0.0000  0.0000  0.0000
    11DUM    Ar 9632  -0.175   4.175   4.375  0.0000  0.0000  0.0000
    11DUM    Ar 9633   0.125   4.025   4.225  0.0000  0.0000  0.0000
    11DUM    Ar 9634   0.275   4.175   4.225  0.0000  0.0000  0.0000
    11DUM    Ar 9635   0.275   4.025   4.375  0.0000  0.0000  0.0000
    11DUM    Ar 9636   0.125   4.175   4.375  0.0000  0.0000  0.0000
    11DUM    Ar 9637   0.425   4.025   4.225  0.0000  0.0000  0.0000
    11DUM    Ar 9638   0.575   4.175   4.225  0.0000  0.0000  0.0000
    11DUM    Ar 9639   0.575   4.025   4.375  0.0000  0.0000  0.0000
    11DUM    Ar 9640   0.425   4.175   4.375  0.0000  0.0000  0.0000
    11DUM    Ar 9641   0.725   4.025   4.225  0.0000  0.0000  0.0000
    11DUM    Ar 9642   0.875   4.175   4.225  0.0000  0.0000  0.0000
    11DUM    Ar 9643   0.875   4.025   4.375  0.0000  0.0000  0.0000
    11DUM    Ar 9644   0.725   4.175   4.375  0.0000  0.0000  0.0000
    11DUM    Ar 9645   1.025   4.025   4.225  0.0000  0.0000  0.0000
    11DUM    Ar 9646   1.175   4.175   4.225  0.0000  0.0000  0.0000
    11DUM    Ar 9647   1.175   4.025   4.375  0.0000  0.0000  0.0000
    11DUM    Ar 9648   1.025   4.175   4.375  0.0000  0.0000  0.0000
    11DUM    Ar 9649   1.325   4.025   4.225  0.0000  0.0000  0.0000
    11DUM    Ar 9650   1.475   4.175   4.225  0.0000  0.0000  0.0000
    11DUM    Ar 9651   1.475   4.025   4.375  0.0000  0.0000  0.0000
    11DUM    Ar 9652   1.325   4.175   4.375  0.0000  0.0000  0.0000
    11DUM    Ar 9653   1.625   4.025   4.225  0.0000  0.0000  0.0000
    11DUM    Ar 9654   1.775   4.175   4.225  0.0000  0.0000  0.0000
    11DUM    Ar 9655   1.775   4.025   4.375  0.0000  0.0000  0.0000
    11DUM    Ar 9656   1.625   4.175   4.375  0.0000  0.0000  0.0000
    11DUM    Ar 9657   1.925   4.025   4.225  0.0000  0.0000  0.0000
    11DUM    Ar 9658   2.075   4.175   4.225  0.0000  0.0000  0.0000
    11DUM    Ar 9659   2.075   4.025   4.375  0.0000  0.0000  0.0000
    11DUM    Ar 9660   1.925   4.175   4.375  0.0000  0.0000  0.0000
    11DUM    Ar 9661   2.225   4.025   4.225  0.0000  0.0000  0.0000
    11DUM    Ar 9662   2.375   4.175   4.225  0.0000  0.0000  0.0000
    11DUM    Ar 9663   2.375   4.025   4.375  0.0000  0.0000  0.0000
    11DUM    Ar 9664   2.225   4.175   4.375  0.0000  0.0000  0.0000
    11DUM    Ar 9665   2.525   4.025   4.225  0.0000  0.0000  0.0000
    11DUM    Ar 9666   2.675   4.175   4.225  0.0000  0.0000  0.0000
    11DUM    Ar 9667   2.675   4.025   4.375  0.0000  0.0000  0.0000
    11DUM    Ar 9668   2.525   4.175   4.375  0.0000  0.0000  0.0000
    11DUM    Ar 9669   2.825   4.025   4.225  0.0000  0.0000  0.0000
    11DUM    Ar 9670   2.975   4.175   4.225  0.0000  0.0000  0.0000
    11DUM    Ar 9671   2.975   4.025   4.375  0.0000  0.0000  0.0000
    11DUM    Ar 9672   2.825   4.175   4.375  0.0000  0.0000  0.0000
    11DUM    Ar 9673   3.125   4.025   4.225  0.0000  0.0000  0.0000
    11DUM    Ar 9674   3.275   4.175   4.225  0.0000  0.0000  0.0000
    11DUM    Ar 9675   3.275   4.025   4.375  0.0000  0.0000  0.0000
    11DUM    Ar 9676   3.125   4.175   4.375  0.0000  0.0000  0.0000
    11DUM    Ar 9677   3.425   4.025   4.225  0.0000  0.0000  0.0000
    11DUM    Ar 9678   3.575   4.175   4.225  0.0000  0.0000  0.0000
    11DUM    Ar 9679   3.575   4.025   4.375  0.0000  0.0000  0.0000
    11DUM    Ar 9680   3.425   4.175   4.375  0.0000  0.0000  0.0000
    11DUM    Ar 9681   3.725   4.025   4.225  0.0000  0.0000  0.0000
    11DUM    Ar 9682   3.875   4.175   4.225  0.0000  0.0000  0.0000
    11DUM    Ar 9683   3.875   4.025   4.375  0.0000  0.0000  0.0000
    11DUM    Ar 9684   3.725   4.175   4.375  0.0000  0.0000  0.0000
    11DUM    Ar 9685   4.025   4.025   4.225  0.0000  0.0000  0.0000
    11DUM    Ar 9686   4.175   4.175   4.225  0.0000  0.0000  0.0000
    11DUM    Ar 9687   4.175   4.025   4.375  0.0000  0.0000  0.0000
    11DUM    Ar 9688   4.025   4.175   4.375  0.0000  0.0000  0.0000
    11DUM    Ar 9689  -0.175  -0.175   4.525  0.0000  0.0000  0.0000
    11DUM    Ar 9690  -0.025  -0.025   4.525  0.0000  0.0000  0.0000
    11DUM    Ar 9691  -0.025  -0.175   4.675  0.0000  0.0000  0.0000
    11DUM    Ar 9692  -0.175  -0.025   4.675  0.0000  0.0000  0.0000
    11DUM    Ar 9693   0.125  -0.175   4.525  0.0000  0.0000  0.0000
    11DUM    Ar 9694   0.275  -0.025   4.525  0.0000  0.0000  0.0000
    11DUM    Ar 9695   0.275  -0.175   4.675  0.0000  0.0000  0.0000
    11DUM    Ar 9696   0.125  -0.025   4.675  0.0000  0.0000  0.0000
    11DUM    Ar 9697   0.425  -0.175   4.525  0.0000  0.0000  0.0000
    11DUM    Ar 9698   0.575  -0.025   4.525  0.0000  0.0000  0.0000
    11DUM    Ar 9699   0.575  -0.175   4.675  0.0000  0.0000  0.0000
    11DUM    Ar 9700   0.425  -0.025   4.675  0.0000  0.0000  0.0000
    11DUM    Ar 9701   0.725  -0.175   4.525  0.0000  0.0000  0.0000
    11DUM    Ar 9702   0.875  -0.025   4.525  0.0000  0.0000  0.0000
    11DUM    Ar 9703   0.875  -0.175   4.675  0.0000  0.0000  0.0000
    11DUM    Ar 9704   0.725  -0.025   4.675  0.0000  0.0000  0.0000
    11DUM    Ar 9705   1.025  -0.175   4.525  0.0000  0.0000  0.0000
    11DUM    Ar 9706   1.175  -0.025   4.525  0.0000  0.0000  0.0000
    11DUM    Ar 9707   1.175  -0.175   4.675  0.0000  0.0000  0.0000
    11DUM    Ar 9708   1.025  -0.025   4.675  0.0000  0.0000  0.0000
    11DUM    Ar 9709   1.325  -0.175   4.525  0.0000  0.0000  0.0000
    11DUM    Ar 9710   1.475  -0.025   4.525  0.0000  0.0000  0.0000
    11DUM    Ar 9711   1.475  -0.175   4.675  0.0000  0.0000  0.0000
    11DUM    Ar 9712   1.325  -0.025   4.675  0.0000  0.0000  0.0000
    11DUM    Ar 9713   1.625  -0.175   4.525  0.0000  0.0000  0.0000
    11DUM    Ar 9714   1.775  -0.025   4.525  0.0000  0.0000  0.0000
    11DUM    Ar 9715   1.775  -0.175   4.675  0.0000  0.0000  0.0000
    11DUM    Ar 9716   1.625  -0.025   4.675  0.0000  0.0000  0.0000
    11DUM    Ar 9717   1.925  -0.175   4.525  0.0000  0.0000  0.0000
    11DUM    Ar 9718   2.075  -0.025   4.525  0.0000  0.0000  0.0000
    11DUM    Ar 9719   2.075  -0.175   4.675  0.0000  0.0000  0.0000
    11DUM    Ar 9720   1.925  -0.025   4.675  0.0000  0.0000  0.0000
    11DUM    Ar 9721   2.225  -0.175   4.525  0.0000  0.0000  0.0000
    11DUM    Ar 9722   2.375  -0.025   4.525  0.0000  0.0000  0.0000
    11DUM    Ar 9723   2.375  -0.175   4.675  0.0000  0.0000  0.0000
    11DUM    Ar 9724   2.225  -0.025   4.675  0.0000  0.0000  0.0000
    11DUM    Ar 9725   2.525  -0.175   4.525  0.0000  0.0000  0.0000
    11DUM    Ar 9726   2.675  -0.025   4.525  0.0000  0.0000  0.0000
    11DUM    Ar 9727   2.675  -0.175   4.675  0.0000  0.0000  0.0000
    11DUM    Ar 9728   2.525  -0.025   4.675  0.0000  0.0000  0.0000
    11DUM    Ar 9729   2.825  -0.175   4.525  0.0000  0.0000  0.0000
    11DUM    Ar 9730   2.975  -0.025   4.525  0.0000  0.0000  0.0000
    11DUM    Ar 9731   2.975  -0.175   4.675  0.0000  0.0000  0.0000
    11DUM    Ar 9732   2.825  -0.025   4.675  0.0000  0.0000  0.0000
    11DUM    Ar 9733   3.125  -0.175   4.525  0.0000  0.0000  0.0000
    11DUM    Ar 9734   3.275  -0.025   4.525  0.0000  0.0000  0.0000
    11DUM    Ar 9735   3.275  -0.175   4.675  0.0000  0.0000  0.0000
    11DUM    Ar 9736   3.125  -0.025   4.675  0.0000  0.0000  0.0000
    11DUM    Ar 9737   3.425  -0.175   4.525  0.0000  0.0000  0.0000
    11DUM    Ar 9738   3.575  -0.025   4.525  0.0000  0.0000  0.0000
    11DUM    Ar 9739   3.575  -0.175   4.675  0.0000  0.0000  0.0000
    11DUM    Ar 9740   3.425  -0.025   4.675  0.0000  0.0000  0.0000
    11DUM    Ar 9741   3.725  -0.175   4.525  0.0000  0.0000  0.0000
    11DUM    Ar 9742   3.875  -0.025   4.525  0.0000  0.0000  0.0000
    11DUM    Ar 9743   3.875  -0.175   4.675  0.0000  0.0000  0.0000
    11DUM    Ar 9744   3.725  -0.025   4.675  0.0000  0.0000  0.0000
    11DUM    Ar 9745   4.025  -0.175   4.525  0.0000  0.0000  0.0000
    11DUM    Ar 9746   4.175  -0.025   4.525  0.0000  0.0000  0.0000
    11DUM    Ar 9747   4.175  -0.175   4.675  0.0000  0.0000  0.0000
    11DUM    Ar 9748   4.025  -0.025   4.675  0.0000  0.0000  0.0000
    11DUM    Ar 9749  -0.175   0.125   4.525  0.0000  0.0000  0.0000
    11DUM    Ar 9750  -0.025   0.275   4.525  0.0000  0.0000  0.0000
    11DUM    Ar 9751  -0.025   0.125   4.675  0.0000  0.0000  0.0000
    11DUM    Ar 9752  -0.175   0.275   4.675  0.0000  0.0000  0.0000
    11DUM    Ar 9753   0.125   0.125   4.525  0.0000  0.0000  0.0000
    11DUM    Ar 9754   0.275   0.275   4.525  0.0000  0.0000  0.0000
    11DUM    Ar 9755   0.275   0.125   4.675  0.0000  0.0000  0.0000
    11DUM    Ar 9756   0.125   0.275   4.675  0.0000  0.0000  0.0000
    11DUM    Ar 9757   0.425   0.125   4.525  0.0000  0.0000  0.0000
    11DUM    Ar 9758   0.575   0.275   4.525  0.0000  0.0000  0.0000
    11DUM    Ar 9759   0.575   0.125   4.675  0.0000  0.0000  0.0000
    11DUM    Ar 9760   0.425   0.275   4.675  0.0000  0.0000  0.0000
    11DUM    Ar 9761   0.725   0.125   4.525  0.0000  0.0000  0.0000
    11DUM    Ar 9762   0.875   0.275   4.525  0.0000  0.0000  0.0000
    11DUM    Ar 9763   0.875   0.125   4.675  0.0000  0.0000  0.0000
    11DUM    Ar 9764   0.725   0.275   4.675  0.0000  0.0000  0.0000
    11DUM    Ar 9765   1.025   0.125   4.525  0.0000  0.0000  0.0000
    11DUM    Ar 9766   1.175   0.275   4.525  0.0000  0.0000  0.0000
    11DUM    Ar 9767   1.175   0.125   4.675  0.0000  0.0000  0.0000
    11DUM    Ar 9768   1.025   0.275   4.675  0.0000  0.0000  0.0000
    11DUM    Ar 9769   1.325   0.125   4.525  0.0000  0.0000  0.0000
    11DUM    Ar 9770   1.475   0.275   4.525  0.0000  0.0000  0.0000
    11DUM    Ar 9771   1.475   0.125   4.675  0.0000  0.0000  0.0000
    11DUM    Ar 9772   1.325   0.275   4.675  0.0000  0.0000  0.0000
    11DUM    Ar 9773   1.625   0.125   4.525  0.0000  0.0000  0.0000
    11DUM    Ar 9774   1.775   0.275   4.525  0.0000  0.0000  0.0000
    11DUM    Ar 9775   1.775   0.125   4.675  0.0000  0.0000  0.0000
    11DUM    Ar 9776   1.625   0.275   4.675  0.0000  0.0000  0.0000
    11DUM    Ar 9777   1.925   0.125   4.525  0.0000  0.0000  0.0000
    11DUM    Ar 9778   2.075   0.275   4.525  0.0000  0.0000  0.0000
    11DUM    Ar 9779   2.075   0.125   4.675  0.0000  0.0000  0.0000
    11DUM    Ar 9780   1.925   0.275   4.675  0.0000  0.0000  0.0000
    11DUM    Ar 9781   2.225   0.125   4.525  0.0000  0.0000  0.0000
    11DUM    Ar 9782   2.375   0.275   4.525  0.0000  0.0000  0.0000
    11DUM    Ar 9783   2.375   0.125   4.675  0.0000  0.0000  0.0000
    11DUM    Ar 9784   2.225   0.275   4.675  0.0000  0.0000  0.0000
    11DUM    Ar 9785   2.525   0.125   4.525  0.0000  0.0000  0.0000
    11DUM    Ar 9786   2.675   0.275   4.525  0.0000  0.0000  0.0000
    11DUM    Ar 9787   2.675   0.125   4.675  0.0000  0.0000  0.0000
    11DUM    Ar 9788   2.525   0.275   4.675  0.0000  0.0000  0.0000
    11DUM    Ar 9789   2.825   0.125   4.525  0.0000  0.0000  0.0000
    11DUM    Ar 9790   2.975   0.275   4.525  0.0000  0.0000  0.0000
    11DUM    Ar 9791   2.975   0.125   4.675  0.0000  0.0000  0.0000
    11DUM    Ar 9792   2.825   0.275   4.675  0.0000  0.0000  0.0000
    11DUM    Ar 9793   3.125   0.125   4.525  0.0000  0.0000  0.0000
    11DUM    Ar 9794   3.275   0.275   4.525  0.0000  0.0000  0.0000
    11DUM    Ar 9795   3.275   0.125   4.675  0.0000  0.0000  0.0000
    11DUM    Ar 9796   3.125   0.275   4.675  0.0000  0.0000  0.0000
    11DUM    Ar 9797   3.425   0.125   4.525  0.0000  0.0000  0.0000
    11DUM    Ar 9798   3.575   0.275   4.525  0.0000  0.0000  0.0000
    11DUM    Ar 9799   3.575   0.125   4.675  0.0000  0.0000  0.0000
    11DUM    Ar 9800   3.425   0.275   4.675  0.0000  0.0000  0.0000
    11DUM    Ar 9801   3.725   0.125   4.525  0.0000  0.0000  0.0000
    11DUM    Ar 9802   3.875   0.275   4.525  0.0000  0.0000  0.0000
    11DUM    Ar 9803   3.875   0.125   4.675  0.0000  0.0000  0.0000
    11DUM    Ar 9804   3.725   0.275   4.675  0.0000  0.0000  0.0000
    11DUM    Ar 9805   4.025   0.125   4.525  0.0000  0.0000  0.0000
    11DUM    Ar 9806   4.175   0.275   4.525  0.0000  0.0000  0.0000
    11DUM    Ar 9807   4.175   0.125   4.675  0.0000  0.0000  0.0000
    11DUM    Ar 9808   4.025   0.275   4.675  0.0000  0.0000  0.0000
    11DUM    Ar 9809  -0.175   0.425   4.525  0.0000  0.0000  0.0000
    11DUM    Ar 9810  -0.025   0.575   4.525  0.0000  0.0000  0.0000
    11DUM    Ar 9811  -0.025   0.425   4.675  0.0000  0.0000  0.0000
    11DUM    Ar 9812  -0.175   0.575   4.675  0.0000  0.0000  0.0000
    11DUM    Ar 9813   0.125   0.425   4.525  0.0000  0.0000  0.0000
    11DUM    Ar 9814   0.275   0.575   4.525  0.0000  0.0000  0.0000
    11DUM    Ar 9815   0.275   0.425   4.675  0.0000  0.0000  0.0000
    11DUM    Ar 9816   0.125   0.575   4.675  0.0000  0.0000  0.0000
    11DUM    Ar 9817   0.425   0.425   4.525  0.0000  0.0000  0.0000
    11DUM    Ar 9818   0.575   0.425   4.675  0.0000  0.0000  0.0000
    11DUM    Ar 9819   0.425   0.575   4.675  0.0000  0.0000  0.0000
    11DUM    Ar 9820   0.725   0.425   4.525  0.0000  0.0000  0.0000
    11DUM    Ar 9821   1.325   0.425   4.525  0.0000  0.0000  0.0000
    11DUM    Ar 9822   1.475   0.575   4.525  0.0000  0.0000  0.0000
    11DUM    Ar 9823   1.475   0.425   4.675  0.0000  0.0000  0.0000
    11DUM    Ar 9824   1.625   0.425   4.525  0.0000  0.0000  0.0000
    11DUM    Ar 9825   1.775   0.575   4.525  0.0000  0.0000  0.0000
    11DUM    Ar 9826   1.775   0.425   4.675  0.0000  0.0000  0.0000
    11DUM    Ar 9827   1.625   0.575   4.675  0.0000  0.0000  0.0000
    11DUM    Ar 9828   1.925   0.425   4.525  0.0000  0.0000  0.0000
    11DUM    Ar 9829   2.075   0.575   4.525  0.0000  0.0000  0.0000
    11DUM    Ar 9830   2.075   0.425   4.675  0.0000  0.0000  0.0000
    11DUM    Ar 9831   1.925   0.575   4.675  0.0000  0.0000  0.0000
    11DUM    Ar 9832   2.225   0.425   4.525  0.0000  0.0000  0.0000
    11DUM    Ar 9833   2.375   0.575   4.525  0.0000  0.0000  0.0000
    11DUM    Ar 9834   2.375   0.425   4.675  0.0000  0.0000  0.0000
    11DUM    Ar 9835   2.225   0.575   4.675  0.0000  0.0000  0.0000
    11DUM    Ar 9836   2.525   0.425   4.525  0.0000  0.0000  0.0000
    11DUM    Ar 9837   2.675   0.425   4.675  0.0000  0.0000  0.0000
    11DUM    Ar 9838   2.525   0.575   4.675  0.0000  0.0000  0.0000
    11DUM    Ar 9839   3.275   0.425   4.675  0.0000  0.0000  0.0000
    11DUM    Ar 9840   3.425   0.425   4.525  0.0000  0.0000  0.0000
    11DUM    Ar 9841   3.575   0.575   4.525  0.0000  0.0000  0.0000
    11DUM    Ar 9842   3.575   0.425   4.675  0.0000  0.0000  0.0000
    11DUM    Ar 9843   3.725   0.425   4.525  0.0000  0.0000  0.0000
    11DUM    Ar 9844   3.875   0.575   4.525  0.0000  0.0000  0.0000
    11DUM    Ar 9845   3.875   0.425   4.675  0.0000  0.0000  0.0000
    11DUM    Ar 9846   3.725   0.575   4.675  0.0000  0.0000  0.0000
    11DUM    Ar 9847   4.025   0.425   4.525  0.0000  0.0000  0.0000
    11DUM    Ar 9848   4.175   0.575   4.525  0.0000  0.0000  0.0000
    11DUM    Ar 9849   4.175   0.425   4.675  0.0000  0.0000  0.0000
    11DUM    Ar 9850   4.025   0.575   4.675  0.0000  0.0000  0.0000
    11DUM    Ar 9851  -0.175   0.725   4.525  0.0000  0.0000  0.0000
    11DUM    Ar 9852  -0.025   0.875   4.525  0.0000  0.0000  0.0000
    11DUM    Ar 9853  -0.025   0.725   4.675  0.0000  0.0000  0.0000
    11DUM    Ar 9854  -0.175   0.875   4.675  0.0000  0.0000  0.0000
    11DUM    Ar 9855   0.125   0.725   4.525  0.0000  0.0000  0.0000
    11DUM    Ar 9856   0.275   0.875   4.525  0.0000  0.0000  0.0000
    11DUM    Ar 9857   0.275   0.725   4.675  0.0000  0.0000  0.0000
    11DUM    Ar 9858   0.125   0.875   4.675  0.0000  0.0000  0.0000
    11DUM    Ar 9859   0.425   0.725   4.525  0.0000  0.0000  0.0000
    11DUM    Ar 9860   1.625   0.725   4.525  0.0000  0.0000  0.0000
    11DUM    Ar 9861   1.775   0.875   4.525  0.0000  0.0000  0.0000
    11DUM    Ar 9862   1.775   0.725   4.675  0.0000  0.0000  0.0000
    11DUM    Ar 9863   1.625   0.875   4.675  0.0000  0.0000  0.0000
    11DUM    Ar 9864   1.925   0.725   4.525  0.0000  0.0000  0.0000
    11DUM    Ar 9865   2.075   0.875   4.525  0.0000  0.0000  0.0000
    11DUM    Ar 9866   2.075   0.725   4.675  0.0000  0.0000  0.0000
    11DUM    Ar 9867   1.925   0.875   4.675  0.0000  0.0000  0.0000
    11DUM    Ar 9868   2.225   0.725   4.525  0.0000  0.0000  0.0000
    11DUM    Ar 9869   2.375   0.875   4.525  0.0000  0.0000  0.0000
    11DUM    Ar 9870   2.375   0.725   4.675  0.0000  0.0000  0.0000
    11DUM    Ar 9871   2.225   0.875   4.675  0.0000  0.0000  0.0000
    11DUM    Ar 9872   3.575   0.725   4.675  0.0000  0.0000  0.0000
    11DUM    Ar 9873   3.725   0.725   4.525  0.0000  0.0000  0.0000
    11DUM    Ar 9874   3.875   0.875   4.525  0.0000  0.0000  0.0000
    11DUM    Ar 9875   3.875   0.725   4.675  0.0000  0.0000  0.0000
    11DUM    Ar 9876   3.725   0.875   4.675  0.0000  0.0000  0.0000
    11DUM    Ar 9877   4.025   0.725   4.525  0.0000  0.0000  0.0000
    11DUM    Ar 9878   4.175   0.875   4.525  0.0000  0.0000  0.0000
    11DUM    Ar 9879   4.175   0.725   4.675  0.0000  0.0000  0.0000
    11DUM    Ar 9880   4.025   0.875   4.675  0.0000  0.0000  0.0000
    11DUM    Ar 9881  -0.175   1.025   4.525  0.0000  0.0000  0.0000
    11DUM    Ar 9882  -0.025   1.175   4.525  0.0000  0.0000  0.0000
    11DUM    Ar 9883  -0.025   1.025   4.675  0.0000  0.0000  0.0000
    11DUM    Ar 9884  -0.175   1.175   4.675  0.0000  0.0000  0.0000
    11DUM    Ar 9885   0.125   1.025   4.525  0.0000  0.0000  0.0000
    11DUM    Ar 9886   0.275   1.175   4.525  0.0000  0.0000  0.0000
    11DUM    Ar 9887   0.275   1.025   4.675  0.0000  0.0000  0.0000
    11DUM    Ar 9888   0.125   1.175   4.675  0.0000  0.0000  0.0000
    11DUM    Ar 9889   1.625   1.025   4.525  0.0000  0.0000  0.0000
    11DUM    Ar 9890   1.775   1.175   4.525  0.0000  0.0000  0.0000
    11DUM    Ar 9891   1.775   1.025   4.675  0.0000  0.0000  0.0000
    11DUM    Ar 9892   1.625   1.175   4.675  0.0000  0.0000  0.0000
    11DUM    Ar 9893   1.925   1.025   4.525  0.0000  0.0000  0.0000
    11DUM    Ar 9894   2.075   1.175   4.525  0.0000  0.0000  0.0000
    11DUM    Ar 9895   2.075   1.025   4.675  0.0000  0.0000  0.0000
    11DUM    Ar 9896   1.925   1.175   4.675  0.0000  0.0000  0.0000
    11DUM    Ar 9897   2.225   1.025   4.525  0.0000  0.0000  0.0000
    11DUM    Ar 9898   2.375   1.175   4.525  0.0000  0.0000  0.0000
    11DUM    Ar 9899   2.375   1.025   4.675  0.0000  0.0000  0.0000
    11DUM    Ar 9900   2.225   1.175   4.675  0.0000  0.0000  0.0000
    11DUM    Ar 9901   3.725   1.025   4.525  0.0000  0.0000  0.0000
    11DUM    Ar 9902   3.875   1.175   4.525  0.0000  0.0000  0.0000
    11DUM    Ar 9903   3.875   1.025   4.675  0.0000  0.0000  0.0000
    11DUM    Ar 9904   3.725   1.175   4.675  0.0000  0.0000  0.0000
    11DUM    Ar 9905   4.025   1.025   4.525  0.0000  0.0000  0.0000
    11DUM    Ar 9906   4.175   1.175   4.525  0.0000  0.0000  0.0000
    11DUM    Ar 9907   4.175   1.025   4.675  0.0000  0.0000  0.0000
    11DUM    Ar 9908   4.025   1.175   4.675  0.0000  0.0000  0.0000
    11DUM    Ar 9909  -0.175   1.325   4.525  0.0000  0.0000  0.0000
    11DUM    Ar 9910  -0.025   1.475   4.525  0.0000  0.0000  0.0000
    11DUM    Ar 9911  -0.025   1.325   4.675  0.0000  0.0000  0.0000
    11DUM    Ar 9912  -0.175   1.475   4.675  0.0000  0.0000  0.0000
    11DUM    Ar 9913   0.125   1.325   4.525  0.0000  0.0000  0.0000
    11DUM    Ar 9914   0.275   1.475   4.525  0.0000  0.0000  0.0000
    11DUM    Ar 9915   0.275   1.325   4.675  0.0000  0.0000  0.0000
    11DUM    Ar 9916   0.125   1.475   4.675  0.0000  0.0000  0.0000
    11DUM    Ar 9917   0.425   1.325   4.525  0.0000  0.0000  0.0000
    11DUM    Ar 9918   0.575   1.475   4.525  0.0000  0.0000  0.0000
    11DUM    Ar 9919   0.425   1.475   4.675  0.0000  0.0000  0.0000
    11DUM    Ar 9920   1.475   1.475   4.525  0.0000  0.0000  0.0000
    11DUM    Ar 9921   1.625   1.325   4.525  0.0000  0.0000  0.0000
    11DUM    Ar 9922   1.775   1.475   4.525  0.0000  0.0000  0.0000
    11DUM    Ar 9923   1.775   1.325   4.675  0.0000  0.0000  0.0000
    11DUM    Ar 9924   1.625   1.475   4.675  0.0000  0.0000  0.0000
    11DUM    Ar 9925   1.925   1.325   4.525  0.0000  0.0000  0.0000
    11DUM    Ar 9926   2.075   1.475   4.525  0.0000  0.0000  0.0000
    11DUM    Ar 9927   2.075   1.325   4.675  0.0000  0.0000  0.0000
    11DUM    Ar 9928   1.925   1.475   4.675  0.0000  0.0000  0.0000
    11DUM    Ar 9929   2.225   1.325   4.525  0.0000  0.0000  0.0000
    11DUM    Ar 9930   2.375   1.475   4.525  0.0000  0.0000  0.0000
    11DUM    Ar 9931   2.375   1.325   4.675  0.0000  0.0000  0.0000
    11DUM    Ar 9932   2.225   1.475   4.675  0.0000  0.0000  0.0000
    11DUM    Ar 9933   2.525   1.475   4.675  0.0000  0.0000  0.0000
    11DUM    Ar 9934   3.575   1.475   4.525  0.0000  0.0000  0.0000
    11DUM    Ar 9935   3.575   1.325   4.675  0.0000  0.0000  0.0000
    11DUM    Ar 9936   3.425   1.475   4.675  0.0000  0.0000  0.0000
    11DUM    Ar 9937   3.725   1.325   4.525  0.0000  0.0000  0.0000
    11DUM    Ar 9938   3.875   1.475   4.525  0.0000  0.0000  0.0000
    11DUM    Ar 9939   3.875   1.325   4.675  0.0000  0.0000  0.0000
    11DUM    Ar 9940   3.725   1.475   4.675  0.0000  0.0000  0.0000
    11DUM    Ar 9941   4.025   1.325   4.525  0.0000  0.0000  0.0000
    11DUM    Ar 9942   4.175   1.475   4.525  0.0000  0.0000  0.0000
    11DUM    Ar 9943   4.175   1.325   4.675  0.0000  0.0000  0.0000
    11DUM    Ar 9944   4.025   1.475   4.675  0.0000  0.0000  0.0000
    11DUM    Ar 9945  -0.175   1.625   4.525  0.0000  0.0000  0.0000
    11DUM    Ar 9946  -0.025   1.775   4.525  0.0000  0.0000  0.0000
    11DUM    Ar 9947  -0.025   1.625   4.675  0.0000  0.0000  0.0000
    11DUM    Ar 9948  -0.175   1.775   4.675  0.0000  0.0000  0.0000
    11DUM    Ar 9949   0.125   1.625   4.525  0.0000  0.0000  0.0000
    11DUM    Ar 9950   0.275   1.775   4.525  0.0000  0.0000  0.0000
    11DUM    Ar 9951   0.275   1.625   4.675  0.0000  0.0000  0.0000
    11DUM    Ar 9952   0.125   1.775   4.675  0.0000  0.0000  0.0000
    11DUM    Ar 9953   0.425   1.625   4.525  0.0000  0.0000  0.0000
    11DUM    Ar 9954   0.575   1.775   4.525  0.0000  0.0000  0.0000
    11DUM    Ar 9955   0.575   1.625   4.675  0.0000  0.0000  0.0000
    11DUM    Ar 9956   0.425   1.775   4.675  0.0000  0.0000  0.0000
    11DUM    Ar 9957   0.725   1.625   4.525  0.0000  0.0000  0.0000
    11DUM    Ar 9958   0.875   1.775   4.525  0.0000  0.0000  0.0000
    11DUM    Ar 9959   0.875   1.625   4.675  0.0000  0.0000  0.0000
    11DUM    Ar 9960   0.725   1.775   4.675  0.0000  0.0000  0.0000
    11DUM    Ar 9961   1.025   1.625   4.525  0.0000  0.0000  0.0000
    11DUM    Ar 9962   1.175   1.775   4.525  0.0000  0.0000  0.0000
    11DUM    Ar 9963   1.175   1.625   4.675  0.0000  0.0000  0.0000
    11DUM    Ar 9964   1.025   1.775   4.675  0.0000  0.0000  0.0000
    11DUM    Ar 9965   1.325   1.625   4.525  0.0000  0.0000  0.0000
    11DUM    Ar 9966   1.475   1.775   4.525  0.0000  0.0000  0.0000
    11DUM    Ar 9967   1.475   1.625   4.675  0.0000  0.0000  0.0000
    11DUM    Ar 9968   1.325   1.775   4.675  0.0000  0.0000  0.0000
    11DUM    Ar 9969   1.625   1.625   4.525  0.0000  0.0000  0.0000
    11DUM    Ar 9970   1.775   1.775   4.525  0.0000  0.0000  0.0000
    11DUM    Ar 9971   1.775   1.625   4.675  0.0000  0.0000  0.0000
    11DUM    Ar 9972   1.625   1.775   4.675  0.0000  0.0000  0.0000
    11DUM    Ar 9973   1.925   1.625   4.525  0.0000  0.0000  0.0000
    11DUM    Ar 9974   2.075   1.775   4.525  0.0000  0.0000  0.0000
    11DUM    Ar 9975   2.075   1.625   4.675  0.0000  0.0000  0.0000
    11DUM    Ar 9976   1.925   1.775   4.675  0.0000  0.0000  0.0000
    11DUM    Ar 9977   2.225   1.625   4.525  0.0000  0.0000  0.0000
    11DUM    Ar 9978   2.375   1.775   4.525  0.0000  0.0000  0.0000
    11DUM    Ar 9979   2.375   1.625   4.675  0.0000  0.0000  0.0000
    11DUM    Ar 9980   2.225   1.775   4.675  0.0000  0.0000  0.0000
    11DUM    Ar 9981   2.525   1.625   4.525  0.0000  0.0000  0.0000
    11DUM    Ar 9982   2.675   1.775   4.525  0.0000  0.0000  0.0000
    11DUM    Ar 9983   2.675   1.625   4.675  0.0000  0.0000  0.0000
    11DUM    Ar 9984   2.525   1.775   4.675  0.0000  0.0000  0.0000
    11DUM    Ar 9985   2.825   1.625   4.525  0.0000  0.0000  0.0000
    11DUM    Ar 9986   2.975   1.775   4.525  0.0000  0.0000  0.0000
    11DUM    Ar 9987   2.975   1.625   4.675  0.0000  0.0000  0.0000
    11DUM    Ar 9988   2.825   1.775   4.675  0.0000  0.0000  0.0000
    11DUM    Ar 9989   3.125   1.625   4.525  0.0000  0.0000  0.0000
    11DUM    Ar 9990   3.275   1.775   4.525  0.0000  0.0000  0.0000
    11DUM    Ar 9991   3.275   1.625   4.675  0.0000  0.0000  0.0000
    11DUM    Ar 9992   3.125   1.775   4.675  0.0000  0.0000  0.0000
    11DUM    Ar 9993   3.425   1.625   4.525  0.0000  0.0000  0.0000
    11DUM    Ar 9994   3.575   1.775   4.525  0.0000  0.0000  0.0000
    11DUM    Ar 9995   3.575   1.625   4.675  0.0000  0.0000  0.0000
    11DUM    Ar 9996   3.425   1.775   4.675  0.0000  0.0000  0.0000
    11DUM    Ar 9997   3.725   1.625   4.525  0.0000  0.0000  0.0000
    11DUM    Ar 9998   3.875   1.775   4.525  0.0000  0.0000  0.0000
    11DUM    Ar 9999   3.875   1.625   4.675  0.0000  0.0000  0.0000
    11DUM    Ar10000   3.725   1.775   4.675  0.0000  0.0000  0.0000
    11DUM    Ar10001   4.025   1.625   4.525  0.0000  0.0000  0.0000
    11DUM    Ar10002   4.175   1.775   4.525  0.0000  0.0000  0.0000
    11DUM    Ar10003   4.175   1.625   4.675  0.0000  0.0000  0.0000
    11DUM    Ar10004   4.025   1.775   4.675  0.0000  0.0000  0.0000
    11DUM    Ar10005  -0.175   1.925   4.525  0.0000  0.0000  0.0000
    11DUM    Ar10006  -0.025   2.075   4.525  0.0000  0.0000  0.0000
    11DUM    Ar10007  -0.025   1.925   4.675  0.0000  0.0000  0.0000
    11DUM    Ar10008  -0.175   2.075   4.675  0.0000  0.0000  0.0000
    11DUM    Ar10009   0.125   1.925   4.525  0.0000  0.0000  0.0000
    11DUM    Ar10010   0.275   2.075   4.525  0.0000  0.0000  0.0000
    11DUM    Ar10011   0.275   1.925   4.675  0.0000  0.0000  0.0000
    11DUM    Ar10012   0.125   2.075   4.675  0.0000  0.0000  0.0000
    11DUM    Ar10013   0.425   1.925   4.525  0.0000  0.0000  0.0000
    11DUM    Ar10014   0.575   2.075   4.525  0.0000  0.0000  0.0000
    11DUM    Ar10015   0.575   1.925   4.675  0.0000  0.0000  0.0000
    11DUM    Ar10016   0.425   2.075   4.675  0.0000  0.0000  0.0000
    11DUM    Ar10017   0.725   1.925   4.525  0.0000  0.0000  0.0000
    11DUM    Ar10018   0.875   2.075   4.525  0.0000  0.0000  0.0000
    11DUM    Ar10019   0.875   1.925   4.675  0.0000  0.0000  0.0000
    11DUM    Ar10020   0.725   2.075   4.675  0.0000  0.0000  0.0000
    11DUM    Ar10021   1.025   1.925   4.525  0.0000  0.0000  0.0000
    11DUM    Ar10022   1.175   2.075   4.525  0.0000  0.0000  0.0000
    11DUM    Ar10023   1.175   1.925   4.675  0.0000  0.0000  0.0000
    11DUM    Ar10024   1.025   2.075   4.675  0.0000  0.0000  0.0000
    11DUM    Ar10025   1.325   1.925   4.525  0.0000  0.0000  0.0000
    11DUM    Ar10026   1.475   2.075   4.525  0.0000  0.0000  0.0000
    11DUM    Ar10027   1.475   1.925   4.675  0.0000  0.0000  0.0000
    11DUM    Ar10028   1.325   2.075   4.675  0.0000  0.0000  0.0000
    11DUM    Ar10029   1.625   1.925   4.525  0.0000  0.0000  0.0000
    11DUM    Ar10030   1.775   2.075   4.525  0.0000  0.0000  0.0000
    11DUM    Ar10031   1.775   1.925   4.675  0.0000  0.0000  0.0000
    11DUM    Ar10032   1.625   2.075   4.675  0.0000  0.0000  0.0000
    11DUM    Ar10033   1.925   1.925   4.525  0.0000  0.0000  0.0000
    11DUM    Ar10034   2.075   2.075   4.525  0.0000  0.0000  0.0000
    11DUM    Ar10035   2.075   1.925   4.675  0.0000  0.0000  0.0000
    11DUM    Ar10036   1.925   2.075   4.675  0.0000  0.0000  0.0000
    11DUM    Ar10037   2.225   1.925   4.525  0.0000  0.0000  0.0000
    11DUM    Ar10038   2.375   2.075   4.525  0.0000  0.0000  0.0000
    11DUM    Ar10039   2.375   1.925   4.675  0.0000  0.0000  0.0000
    11DUM    Ar10040   2.225   2.075   4.675  0.0000  0.0000  0.0000
    11DUM    Ar10041   2.525   1.925   4.525  0.0000  0.0000  0.0000
    11DUM    Ar10042   2.675   2.075   4.525  0.0000  0.0000  0.0000
    11DUM    Ar10043   2.675   1.925   4.675  0.0000  0.0000  0.0000
    11DUM    Ar10044   2.525   2.075   4.675  0.0000  0.0000  0.0000
    11DUM    Ar10045   2.825   1.925   4.525  0.0000  0.0000  0.0000
    11DUM    Ar10046   2.975   2.075   4.525  0.0000  0.0000  0.0000
    11DUM    Ar10047   2.975   1.925   4.675  0.0000  0.0000  0.0000
    11DUM    Ar10048   2.825   2.075   4.675  0.0000  0.0000  0.0000
    11DUM    Ar10049   3.125   1.925   4.525  0.0000  0.0000  0.0000
    11DUM    Ar10050   3.275   2.075   4.525  0.0000  0.0000  0.0000
    11DUM    Ar10051   3.275   1.925   4.675  0.0000  0.0000  0.0000
    11DUM    Ar10052   3.125   2.075   4.675  0.0000  0.0000  0.0000
    11DUM    Ar10053   3.425   1.925   4.525  0.0000  0.0000  0.0000
    11DUM    Ar10054   3.575   2.075   4.525  0.0000  0.0000  0.0000
    11DUM    Ar10055   3.575   1.925   4.675  0.0000  0.0000  0.0000
    11DUM    Ar10056   3.425   2.075   4.675  0.0000  0.0000  0.0000
    11DUM    Ar10057   3.725   1.925   4.525  0.0000  0.0000  0.0000
    11DUM    Ar10058   3.875   2.075   4.525  0.0000  0.0000  0.0000
    11DUM    Ar10059   3.875   1.925   4.675  0.0000  0.0000  0.0000
    11DUM    Ar10060   3.725   2.075   4.675  0.0000  0.0000  0.0000
    11DUM    Ar10061   4.025   1.925   4.525  0.0000  0.0000  0.0000
    11DUM    Ar10062   4.175   2.075   4.525  0.0000  0.0000  0.0000
    11DUM    Ar10063   4.175   1.925   4.675  0.0000  0.0000  0.0000
    11DUM    Ar10064   4.025   2.075   4.675  0.0000  0.0000  0.0000
    11DUM    Ar10065  -0.175   2.225   4.525  0.0000  0.0000  0.0000
    11DUM    Ar10066  -0.025   2.375   4.525  0.0000  0.0000  0.0000
    11DUM    Ar10067  -0.025   2.225   4.675  0.0000  0.0000  0.0000
    11DUM    Ar10068  -0.175   2.375   4.675  0.0000  0.0000  0.0000
    11DUM    Ar10069   0.125   2.225   4.525  0.0000  0.0000  0.0000
    11DUM    Ar10070   0.275   2.375   4.525  0.0000  0.0000  0.0000
    11DUM    Ar10071   0.275   2.225   4.675  0.0000  0.0000  0.0000
    11DUM    Ar10072   0.125   2.375   4.675  0.0000  0.0000  0.0000
    11DUM    Ar10073   0.425   2.225   4.525  0.0000  0.0000  0.0000
    11DUM    Ar10074   0.575   2.375   4.525  0.0000  0.0000  0.0000
    11DUM    Ar10075   0.575   2.225   4.675  0.0000  0.0000  0.0000
    11DUM    Ar10076   0.425   2.375   4.675  0.0000  0.0000  0.0000
    11DUM    Ar10077   0.725   2.225   4.525  0.0000  0.0000  0.0000
    11DUM    Ar10078   0.875   2.375   4.525  0.0000  0.0000  0.0000
    11DUM    Ar10079   0.875   2.225   4.675  0.0000  0.0000  0.0000
    11DUM    Ar10080   0.725   2.375   4.675  0.0000  0.0000  0.0000
    11DUM    Ar10081   1.025   2.225   4.525  0.0000  0.0000  0.0000
    11DUM    Ar10082   1.175   2.375   4.525  0.0000  0.0000  0.0000
    11DUM    Ar10083   1.175   2.225   4.675  0.0000  0.0000  0.0000
    11DUM    Ar10084   1.025   2.375   4.675  0.0000  0.0000  0.0000
    11DUM    Ar10085   1.325   2.225   4.525  0.0000  0.0000  0.0000
    11DUM    Ar10086   1.475   2.375   4.525  0.0000  0.0000  0.0000
    11DUM    Ar10087   1.475   2.225   4.675  0.0000  0.0000  0.0000
    11DUM    Ar10088   1.325   2.375   4.675  0.0000  0.0000  0.0000
    11DUM    Ar10089   1.625   2.225   4.525  0.0000  0.0000  0.0000
    11DUM    Ar10090   1.775   2.375   4.525  0.0000  0.0000  0.0000
    11DUM    Ar10091   1.775   2.225   4.675  0.0000  0.0000  0.0000
    11DUM    Ar10092   1.625   2.375   4.675  0.0000  0.0000  0.0000
    11DUM    Ar10093   1.925   2.225   4.525  0.0000  0.0000  0.0000
    11DUM    Ar10094   2.075   2.375   4.525  0.0000  0.0000  0.0000
    11DUM    Ar10095   2.075   2.225   4.675  0.0000  0.0000  0.0000
    11DUM    Ar10096   1.925   2.375   4.675  0.0000  0.0000  0.0000
    11DUM    Ar10097   2.225   2.225   4.525  0.0000  0.0000  0.0000
    11DUM    Ar10098   2.375   2.375   4.525  0.0000  0.0000  0.0000
    11DUM    Ar10099   2.375   2.225   4.675  0.0000  0.0000  0.0000
    11DUM    Ar10100   2.225   2.375   4.675  0.0000  0.0000  0.0000
    11DUM    Ar10101   2.525   2.225   4.525  0.0000  0.0000  0.0000
    11DUM    Ar10102   2.675   2.375   4.525  0.0000  0.0000  0.0000
    11DUM    Ar10103   2.675   2.225   4.675  0.0000  0.0000  0.0000
    11DUM    Ar10104   2.525   2.375   4.675  0.0000  0.0000  0.0000
    11DUM    Ar10105   2.825   2.225   4.525  0.0000  0.0000  0.0000
    11DUM    Ar10106   2.975   2.375   4.525  0.0000  0.0000  0.0000
    11DUM    Ar10107   2.975   2.225   4.675  0.0000  0.0000  0.0000
    11DUM    Ar10108   2.825   2.375   4.675  0.0000  0.0000  0.0000
    11DUM    Ar10109   3.125   2.225   4.525  0.0000  0.0000  0.0000
    11DUM    Ar10110   3.275   2.375   4.525  0.0000  0.0000  0.0000
    11DUM    Ar10111   3.275   2.225   4.675  0.0000  0.0000  0.0000
    11DUM    Ar10112   3.125   2.375   4.675  0.0000  0.0000  0.0000
    11DUM    Ar10113   3.425   2.225   4.525  0.0000  0.0000  0.0000
    11DUM    Ar10114   3.575   2.375   4.525  0.0000  0.0000  0.0000
    11DUM    Ar10115   3.575   2.225   4.675  0.0000  0.0000  0.0000
    11DUM    Ar10116   3.425   2.375   4.675  0.0000  0.0000  0.0000
    11DUM    Ar10117   3.725   2.225   4.525  0.0000  0.0000  0.0000
    11DUM    Ar10118   3.875   2.375   4.525  0.0000  0.0000  0.0000
    11DUM    Ar10119   3.875   2.225   4.675  0.0000  0.0000  0.0000
    11DUM    Ar10120   3.725   2.375   4.675  0.0000  0.0000  0.0000
    11DUM    Ar10121   4.025   2.225   4.525  0.0000  0.0000  0.0000
    11DUM    Ar10122   4.175   2.375   4.525  0.0000  0.0000  0.0000
    11DUM    Ar10123   4.175   2.225   4.675  0.0000  0.0000  0.0000
    11DUM    Ar10124   4.025   2.375   4.675  0.0000  0.0000  0.0000
    11DUM    Ar10125  -0.175   2.525   4.525  0.0000  0.0000  0.0000
    11DUM    Ar10126  -0.025   2.675   4.525  0.0000  0.0000  0.0000
    11DUM    Ar10127  -0.025   2.525   4.675  0.0000  0.0000  0.0000
    11DUM    Ar10128  -0.175   2.675   4.675  0.0000  0.0000  0.0000
    11DUM    Ar10129   0.125   2.525   4.525  0.0000  0.0000  0.0000
    11DUM    Ar10130   0.275   2.675   4.525  0.0000  0.0000  0.0000
    11DUM    Ar10131   0.275   2.525   4.675  0.0000  0.0000  0.0000
    11DUM    Ar10132   0.125   2.675   4.675  0.0000  0.0000  0.0000
    11DUM    Ar10133   0.425   2.525   4.525  0.0000  0.0000  0.0000
    11DUM    Ar10134   0.575   2.525   4.675  0.0000  0.0000  0.0000
    11DUM    Ar10135   0.425   2.675   4.675  0.0000  0.0000  0.0000
    11DUM    Ar10136   1.475   2.525   4.675  0.0000  0.0000  0.0000
    11DUM    Ar10137   1.625   2.525   4.525  0.0000  0.0000  0.0000
    11DUM    Ar10138   1.775   2.675   4.525  0.0000  0.0000  0.0000
    11DUM    Ar10139   1.775   2.525   4.675  0.0000  0.0000  0.0000
    11DUM    Ar10140   1.625   2.675   4.675  0.0000  0.0000  0.0000
    11DUM    Ar10141   1.925   2.525   4.525  0.0000  0.0000  0.0000
    11DUM    Ar10142   2.075   2.675   4.525  0.0000  0.0000  0.0000
    11DUM    Ar10143   2.075   2.525   4.675  0.0000  0.0000  0.0000
    11DUM    Ar10144   1.925   2.675   4.675  0.0000  0.0000  0.0000
    11DUM    Ar10145   2.225   2.525   4.525  0.0000  0.0000  0.0000
    11DUM    Ar10146   2.375   2.675   4.525  0.0000  0.0000  0.0000
    11DUM    Ar10147   2.375   2.525   4.675  0.0000  0.0000  0.0000
    11DUM    Ar10148   2.225   2.675   4.675  0.0000  0.0000  0.0000
    11DUM    Ar10149   2.525   2.525   4.525  0.0000  0.0000  0.0000
    11DUM    Ar10150   3.425   2.525   4.525  0.0000  0.0000  0.0000
    11DUM    Ar10151   3.575   2.675   4.525  0.0000  0.0000  0.0000
    11DUM    Ar10152   3.575   2.525   4.675  0.0000  0.0000  0.0000
    11DUM    Ar10153   3.725   2.525   4.525  0.0000  0.0000  0.0000
    11DUM    Ar10154   3.875   2.675   4.525  0.0000  0.0000  0.0000
    11DUM    Ar10155   3.875   2.525   4.675  0.0000  0.0000  0.0000
    11DUM    Ar10156   3.725   2.675   4.675  0.0000  0.0000  0.0000
    11DUM    Ar10157   4.025   2.525   4.525  0.0000  0.0000  0.0000
    11DUM    Ar10158   4.175   2.675   4.525  0.0000  0.0000  0.0000
    11DUM    Ar10159   4.175   2.525   4.675  0.0000  0.0000  0.0000
    11DUM    Ar10160   4.025   2.675   4.675  0.0000  0.0000  0.0000
    11DUM    Ar10161  -0.175   2.825   4.525  0.0000  0.0000  0.0000
    11DUM    Ar10162  -0.025   2.975   4.525  0.0000  0.0000  0.0000
    11DUM    Ar10163  -0.025   2.825   4.675  0.0000  0.0000  0.0000
    11DUM    Ar10164  -0.175   2.975   4.675  0.0000  0.0000  0.0000
    11DUM    Ar10165   0.125   2.825   4.525  0.0000  0.0000  0.0000
    11DUM    Ar10166   0.275   2.975   4.525  0.0000  0.0000  0.0000
    11DUM    Ar10167   0.275   2.825   4.675  0.0000  0.0000  0.0000
    11DUM    Ar10168   0.125   2.975   4.675  0.0000  0.0000  0.0000
    11DUM    Ar10169   1.625   2.825   4.525  0.0000  0.0000  0.0000
    11DUM    Ar10170   1.775   2.975   4.525  0.0000  0.0000  0.0000
    11DUM    Ar10171   1.775   2.825   4.675  0.0000  0.0000  0.0000
    11DUM    Ar10172   1.625   2.975   4.675  0.0000  0.0000  0.0000
    11DUM    Ar10173   1.925   2.825   4.525  0.0000  0.0000  0.0000
    11DUM    Ar10174   2.075   2.975   4.525  0.0000  0.0000  0.0000
    11DUM    Ar10175   2.075   2.825   4.675  0.0000  0.0000  0.0000
    11DUM    Ar10176   1.925   2.975   4.675  0.0000  0.0000  0.0000
    11DUM    Ar10177   2.225   2.825   4.525  0.0000  0.0000  0.0000
    11DUM    Ar10178   2.375   2.975   4.525  0.0000  0.0000  0.0000
    11DUM    Ar10179   2.375   2.825   4.675  0.0000  0.0000  0.0000
    11DUM    Ar10180   2.225   2.975   4.675  0.0000  0.0000  0.0000
    11DUM    Ar10181   3.725   2.825   4.525  0.0000  0.0000  0.0000
    11DUM    Ar10182   3.875   2.975   4.525  0.0000  0.0000  0.0000
    11DUM    Ar10183   3.875   2.825   4.675  0.0000  0.0000  0.0000
    11DUM    Ar10184   3.725   2.975   4.675  0.0000  0.0000  0.0000
    11DUM    Ar10185   4.025   2.825   4.525  0.0000  0.0000  0.0000
    11DUM    Ar10186   4.175   2.975   4.525  0.0000  0.0000  0.0000
    11DUM    Ar10187   4.175   2.825   4.675  0.0000  0.0000  0.0000
    11DUM    Ar10188   4.025   2.975   4.675  0.0000  0.0000  0.0000
    11DUM    Ar10189  -0.175   3.125   4.525  0.0000  0.0000  0.0000
    11DUM    Ar10190  -0.025   3.275   4.525  0.0000  0.0000  0.0000
    11DUM    Ar10191  -0.025   3.125   4.675  0.0000  0.0000  0.0000
    11DUM    Ar10192  -0.175   3.275   4.675  0.0000  0.0000  0.0000
    11DUM    Ar10193   0.125   3.125   4.525  0.0000  0.0000  0.0000
    11DUM    Ar10194   0.275   3.275   4.525  0.0000  0.0000  0.0000
    11DUM    Ar10195   0.275   3.125   4.675  0.0000  0.0000  0.0000
    11DUM    Ar10196   0.125   3.275   4.675  0.0000  0.0000  0.0000
    11DUM    Ar10197   0.425   3.275   4.675  0.0000  0.0000  0.0000
    11DUM    Ar10198   1.625   3.125   4.525  0.0000  0.0000  0.0000
    11DUM    Ar10199   1.775   3.275   4.525  0.0000  0.0000  0.0000
    11DUM    Ar10200   1.775   3.125   4.675  0.0000  0.0000  0.0000
    11DUM    Ar10201   1.625   3.275   4.675  0.0000  0.0000  0.0000
    11DUM    Ar10202   1.925   3.125   4.525  0.0000  0.0000  0.0000
    11DUM    Ar10203   2.075   3.275   4.525  0.0000  0.0000  0.0000
    11DUM    Ar10204   2.075   3.125   4.675  0.0000  0.0000  0.0000
    11DUM    Ar10205   1.925   3.275   4.675  0.0000  0.0000  0.0000
    11DUM    Ar10206   2.225   3.125   4.525  0.0000  0.0000  0.0000
    11DUM    Ar10207   2.375   3.275   4.525  0.0000  0.0000  0.0000
    11DUM    Ar10208   2.375   3.125   4.675  0.0000  0.0000  0.0000
    11DUM    Ar10209   2.225   3.275   4.675  0.0000  0.0000  0.0000
    11DUM    Ar10210   3.575   3.275   4.525  0.0000  0.0000  0.0000
    11DUM    Ar10211   3.725   3.125   4.525  0.0000  0.0000  0.0000
    11DUM    Ar10212   3.875   3.275   4.525  0.0000  0.0000  0.0000
    11DUM    Ar10213   3.875   3.125   4.675  0.0000  0.0000  0.0000
    11DUM    Ar10214   3.725   3.275   4.675  0.0000  0.0000  0.0000
    11DUM    Ar10215   4.025   3.125   4.525  0.0000  0.0000  0.0000
    11DUM    Ar10216   4.175   3.275   4.525  0.0000  0.0000  0.0000
    11DUM    Ar10217   4.175   3.125   4.675  0.0000  0.0000  0.0000
    11DUM    Ar10218   4.025   3.275   4.675  0.0000  0.0000  0.0000
    11DUM    Ar10219  -0.175   3.425   4.525  0.0000  0.0000  0.0000
    11DUM    Ar10220  -0.025   3.575   4.525  0.0000  0.0000  0.0000
    11DUM    Ar10221  -0.025   3.425   4.675  0.0000  0.0000  0.0000
    11DUM    Ar10222  -0.175   3.575   4.675  0.0000  0.0000  0.0000
    11DUM    Ar10223   0.125   3.425   4.525  0.0000  0.0000  0.0000
    11DUM    Ar10224   0.275   3.575   4.525  0.0000  0.0000  0.0000
    11DUM    Ar10225   0.275   3.425   4.675  0.0000  0.0000  0.0000
    11DUM    Ar10226   0.125   3.575   4.675  0.0000  0.0000  0.0000
    11DUM    Ar10227   0.425   3.425   4.525  0.0000  0.0000  0.0000
    11DUM    Ar10228   0.575   3.575   4.525  0.0000  0.0000  0.0000
    11DUM    Ar10229   0.425   3.575   4.675  0.0000  0.0000  0.0000
    11DUM    Ar10230   0.725   3.575   4.675  0.0000  0.0000  0.0000
    11DUM    Ar10231   1.475   3.575   4.525  0.0000  0.0000  0.0000
    11DUM    Ar10232   1.475   3.425   4.675  0.0000  0.0000  0.0000
    11DUM    Ar10233   1.325   3.575   4.675  0.0000  0.0000  0.0000
    11DUM    Ar10234   1.625   3.425   4.525  0.0000  0.0000  0.0000
    11DUM    Ar10235   1.775   3.575   4.525  0.0000  0.0000  0.0000
    11DUM    Ar10236   1.775   3.425   4.675  0.0000  0.0000  0.0000
    11DUM    Ar10237   1.625   3.575   4.675  0.0000  0.0000  0.0000
    11DUM    Ar10238   1.925   3.425   4.525  0.0000  0.0000  0.0000
    11DUM    Ar10239   2.075   3.575   4.525  0.0000  0.0000  0.0000
    11DUM    Ar10240   2.075   3.425   4.675  0.0000  0.0000  0.0000
    11DUM    Ar10241   1.925   3.575   4.675  0.0000  0.0000  0.0000
    11DUM    Ar10242   2.225   3.425   4.525  0.0000  0.0000  0.0000
    11DUM    Ar10243   2.375   3.575   4.525  0.0000  0.0000  0.0000
    11DUM    Ar10244   2.375   3.425   4.675  0.0000  0.0000  0.0000
    11DUM    Ar10245   2.225   3.575   4.675  0.0000  0.0000  0.0000
    11DUM    Ar10246   2.525   3.425   4.525  0.0000  0.0000  0.0000
    11DUM    Ar10247   2.675   3.575   4.525  0.0000  0.0000  0.0000
    11DUM    Ar10248   2.525   3.575   4.675  0.0000  0.0000  0.0000
    11DUM    Ar10249   3.275   3.575   4.525  0.0000  0.0000  0.0000
    11DUM    Ar10250   3.575   3.575   4.525  0.0000  0.0000  0.0000
    11DUM    Ar10251   3.575   3.425   4.675  0.0000  0.0000  0.0000
    11DUM    Ar10252   3.425   3.575   4.675  0.0000  0.0000  0.0000
    11DUM    Ar10253   3.725   3.425   4.525  0.0000  0.0000  0.0000
    11DUM    Ar10254   3.875   3.575   4.525  0.0000  0.0000  0.0000
    11DUM    Ar10255   3.875   3.425   4.675  0.0000  0.0000  0.0000
    11DUM    Ar10256   3.725   3.575   4.675  0.0000  0.0000  0.0000
    11DUM    Ar10257   4.025   3.425   4.525  0.0000  0.0000  0.0000
    11DUM    Ar10258   4.175   3.575   4.525  0.0000  0.0000  0.0000
    11DUM    Ar10259   4.175   3.425   4.675  0.0000  0.0000  0.0000
    11DUM    Ar10260   4.025   3.575   4.675  0.0000  0.0000  0.0000
    11DUM    Ar10261  -0.175   3.725   4.525  0.0000  0.0000  0.0000
    11DUM    Ar10262  -0.025   3.875   4.525  0.0000  0.0000  0.0000
    11DUM    Ar10263  -0.025   3.725   4.675  0.0000  0.0000  0.0000
    11DUM    Ar10264  -0.175   3.875   4.675  0.0000  0.0000  0.0000
    11DUM    Ar10265   0.125   3.725   4.525  0.0000  0.0000  0.0000
    11DUM    Ar10266   0.275   3.875   4.525  0.0000  0.0000  0.0000
    11DUM    Ar10267   0.275   3.725   4.675  0.0000  0.0000  0.0000
    11DUM    Ar10268   0.125   3.875   4.675  0.0000  0.0000  0.0000
    11DUM    Ar10269   0.425   3.725   4.525  0.0000  0.0000  0.0000
    11DUM    Ar10270   0.575   3.875   4.525  0.0000  0.0000  0.0000
    11DUM    Ar10271   0.575   3.725   4.675  0.0000  0.0000  0.0000
    11DUM    Ar10272   0.425   3.875   4.675  0.0000  0.0000  0.0000
    11DUM    Ar10273   0.725   3.725   4.525  0.0000  0.0000  0.0000
    11DUM    Ar10274   0.875   3.875   4.525  0.0000  0.0000  0.0000
    11DUM    Ar10275   0.875   3.725   4.675  0.0000  0.0000  0.0000
    11DUM    Ar10276   0.725   3.875   4.675  0.0000  0.0000  0.0000
    11DUM    Ar10277   1.025   3.725   4.525  0.0000  0.0000  0.0000
    11DUM    Ar10278   1.175   3.875   4.525  0.0000  0.0000  0.0000
    11DUM    Ar10279   1.175   3.725   4.675  0.0000  0.0000  0.0000
    11DUM    Ar10280   1.025   3.875   4.675  0.0000  0.0000  0.0000
    11DUM    Ar10281   1.325   3.725   4.525  0.0000  0.0000  0.0000
    11DUM    Ar10282   1.475   3.875   4.525  0.0000  0.0000  0.0000
    11DUM    Ar10283   1.475   3.725   4.675  0.0000  0.0000  0.0000
    11DUM    Ar10284   1.325   3.875   4.675  0.0000  0.0000  0.0000
    11DUM    Ar10285   1.625   3.725   4.525  0.0000  0.0000  0.0000
    11DUM    Ar10286   1.775   3.875   4.525  0.0000  0.0000  0.0000
    11DUM    Ar10287   1.775   3.725   4.675  0.0000  0.0000  0.0000
    11DUM    Ar10288   1.625   3.875   4.675  0.0000  0.0000  0.0000
    11DUM    Ar10289   1.925   3.725   4.525  0.0000  0.0000  0.0000
    11DUM    Ar10290   2.075   3.875   4.525  0.0000  0.0000  0.0000
    11DUM    Ar10291   2.075   3.725   4.675  0.0000  0.0000  0.0000
    11DUM    Ar10292   1.925   3.875   4.675  0.0000  0.0000  0.0000
    11DUM    Ar10293   2.225   3.725   4.525  0.0000  0.0000  0.0000
    11DUM    Ar10294   2.375   3.875   4.525  0.0000  0.0000  0.0000
    11DUM    Ar10295   2.375   3.725   4.675  0.0000  0.0000  0.0000
    11DUM    Ar10296   2.225   3.875   4.675  0.0000  0.0000  0.0000
    11DUM    Ar10297   2.525   3.725   4.525  0.0000  0.0000  0.0000
    11DUM    Ar10298   2.675   3.875   4.525  0.0000  0.0000  0.0000
    11DUM    Ar10299   2.675   3.725   4.675  0.0000  0.0000  0.0000
    11DUM    Ar10300   2.525   3.875   4.675  0.0000  0.0000  0.0000
    11DUM    Ar10301   2.825   3.725   4.525  0.0000  0.0000  0.0000
    11DUM    Ar10302   2.975   3.875   4.525  0.0000  0.0000  0.0000
    11DUM    Ar10303   2.975   3.725   4.675  0.0000  0.0000  0.0000
    11DUM    Ar10304   2.825   3.875   4.675  0.0000  0.0000  0.0000
    11DUM    Ar10305   3.125   3.725   4.525  0.0000  0.0000  0.0000
    11DUM    Ar10306   3.275   3.875   4.525  0.0000  0.0000  0.0000
    11DUM    Ar10307   3.275   3.725   4.675  0.0000  0.0000  0.0000
    11DUM    Ar10308   3.125   3.875   4.675  0.0000  0.0000  0.0000
    11DUM    Ar10309   3.425   3.725   4.525  0.0000  0.0000  0.0000
    11DUM    Ar10310   3.575   3.875   4.525  0.0000  0.0000  0.0000
    11DUM    Ar10311   3.575   3.725   4.675  0.0000  0.0000  0.0000
    11DUM    Ar10312   3.425   3.875   4.675  0.0000  0.0000  0.0000
    11DUM    Ar10313   3.725   3.725   4.525  0.0000  0.0000  0.0000
    11DUM    Ar10314   3.875   3.875   4.525  0.0000  0.0000  0.0000
    11DUM    Ar10315   3.875   3.725   4.675  0.0000  0.0000  0.0000
    11DUM    Ar10316   3.725   3.875   4.675  0.0000  0.0000  0.0000
    11DUM    Ar10317   4.025   3.725   4.525  0.0000  0.0000  0.0000
    11DUM    Ar10318   4.175   3.875   4.525  0.0000  0.0000  0.0000
    11DUM    Ar10319   4.175   3.725   4.675  0.0000  0.0000  0.0000
    11DUM    Ar10320   4.025   3.875   4.675  0.0000  0.0000  0.0000
    11DUM    Ar10321  -0.175   4.025   4.525  0.0000  0.0000  0.0000
    11DUM    Ar10322  -0.025   4.175   4.525  0.0000  0.0000  0.0000
    11DUM    Ar10323  -0.025   4.025   4.675  0.0000  0.0000  0.0000
    11DUM    Ar10324  -0.175   4.175   4.675  0.0000  0.0000  0.0000
    11DUM    Ar10325   0.125   4.025   4.525  0.0000  0.0000  0.0000
    11DUM    Ar10326   0.275   4.175   4.525  0.0000  0.0000  0.0000
    11DUM    Ar10327   0.275   4.025   4.675  0.0000  0.0000  0.0000
    11DUM    Ar10328   0.125   4.175   4.675  0.0000  0.0000  0.0000
    11DUM    Ar10329   0.425   4.025   4.525  0.0000  0.0000  0.0000
    11DUM    Ar10330   0.575   4.175   4.525  0.0000  0.0000  0.0000
    11DUM    Ar10331   0.575   4.025   4.675  0.0000  0.0000  0.0000
    11DUM    Ar10332   0.425   4.175   4.675  0.0000  0.0000  0.0000
    11DUM    Ar10333   0.725   4.025   4.525  0.0000  0.0000  0.0000
    11DUM    Ar10334   0.875   4.175   4.525  0.0000  0.0000  0.0000
    11DUM    Ar10335   0.875   4.025   4.675  0.0000  0.0000  0.0000
    11DUM    Ar10336   0.725   4.175   4.675  0.0000  0.0000  0.0000
    11DUM    Ar10337   1.025   4.025   4.525  0.0000  0.0000  0.0000
    11DUM    Ar10338   1.175   4.175   4.525  0.0000  0.0000  0.0000
    11DUM    Ar10339   1.175   4.025   4.675  0.0000  0.0000  0.0000
    11DUM    Ar10340   1.025   4.175   4.675  0.0000  0.0000  0.0000
    11DUM    Ar10341   1.325   4.025   4.525  0.0000  0.0000  0.0000
    11DUM    Ar10342   1.475   4.175   4.525  0.0000  0.0000  0.0000
    11DUM    Ar10343   1.475   4.025   4.675  0.0000  0.0000  0.0000
    11DUM    Ar10344   1.325   4.175   4.675  0.0000  0.0000  0.0000
    11DUM    Ar10345   1.625   4.025   4.525  0.0000  0.0000  0.0000
    11DUM    Ar10346   1.775   4.175   4.525  0.0000  0.0000  0.0000
    11DUM    Ar10347   1.775   4.025   4.675  0.0000  0.0000  0.0000
    11DUM    Ar10348   1.625   4.175   4.675  0.0000  0.0000  0.0000
    11DUM    Ar10349   1.925   4.025   4.525  0.0000  0.0000  0.0000
    11DUM    Ar10350   2.075   4.175   4.525  0.0000  0.0000  0.0000
    11DUM    Ar10351   2.075   4.025   4.675  0.0000  0.0000  0.0000
    11DUM    Ar10352   1.925   4.175   4.675  0.0000  0.0000  0.0000
    11DUM    Ar10353   2.225   4.025   4.525  0.0000  0.0000  0.0000
    11DUM    Ar10354   2.375   4.175   4.525  0.0000  0.0000  0.0000
    11DUM    Ar10355   2.375   4.025   4.675  0.0000  0.0000  0.0000
    11DUM    Ar10356   2.225   4.175   4.675  0.0000  0.0000  0.0000
    11DUM    Ar10357   2.525   4.025   4.525  0.0000  0.0000  0.0000
    11DUM    Ar10358   2.675   4.175   4.525  0.0000  0.0000  0.0000
    11DUM    Ar10359   2.675   4.025   4.675  0.0000  0.0000  0.0000
    11DUM    Ar10360   2.525   4.175   4.675  0.0000  0.0000  0.0000
    11DUM    Ar10361   2.825   4.025   4.525  0.0000  0.0000  0.0000
    11DUM    Ar10362   2.975   4.175   4.525  0.0000  0.0000  0.0000
    11DUM    Ar10363   2.975   4.025   4.675  0.0000  0.0000  0.0000
    11DUM    Ar10364   2.825   4.175   4.675  0.0000  0.0000  0.0000
    11DUM    Ar10365   3.125   4.025   4.525  0.0000  0.0000  0.0000
    11DUM    Ar10366   3.275   4.175   4.525  0.0000  0.0000  0.0000
    11DUM    Ar10367   3.275   4.025   4.675  0.0000  0.0000  0.0000
    11DUM    Ar10368   3.125   4.175   4.675  0.0000  0.0000  0.0000
    11DUM    Ar10369   3.425   4.025   4.525  0.0000  0.0000  0.0000
    11DUM    Ar10370   3.575   4.175   4.525  0.0000  0.0000  0.0000
    11DUM    Ar10371   3.575   4.025   4.675  0.0000  0.0000  0.0000
    11DUM    Ar10372   3.425   4.175   4.675  0.0000  0.0000  0.0000
    11DUM    Ar10373   3.725   4.025   4.525  0.0000  0.0000  0.0000
    11DUM    Ar10374   3.875   4.175   4.525  0.0000  0.0000  0.0000
    11DUM    Ar10375   3.875   4.025   4.675  0.0000  0.0000  0.0000
    11DUM    Ar10376   3.725   4.175   4.675  0.0000  0.0000  0.0000
    11DUM    Ar10377   4.025   4.025   4.525  0.0000  0.0000  0.0000
    11DUM    Ar10378   4.175   4.175   4.525  0.0000  0.0000  0.0000
    11DUM    Ar10379   4.175   4.025   4.675  0.0000  0.0000  0.0000
    11DUM    Ar10380   4.025   4.175   4.675  0.0000  0.0000  0.0000
   4.00000   4.00000   5.00000   0.00000   0.00000   0.00000   0.00000   0.00000   0.00000
