A Gromacs structure file written by ASE 
 2320
    11DUM    Ar    1   0.075   0.075   0.195  0.0000  0.0000  0.0000
    11DUM    Ar    2   0.265   0.265   0.195  0.0000  0.0000  0.0000
    11DUM    Ar    3   0.265   0.075   0.385  0.0000  0.0000  0.0000
    11DUM    Ar    4   0.075   0.265   0.385  0.0000  0.0000  0.0000
    11DUM    Ar    5   0.455   0.075   0.195  0.0000  0.0000  0.0000
    11DUM    Ar    6   0.645   0.265   0.195  0.0000  0.0000  0.0000
    11DUM    Ar    7   0.645   0.075   0.385  0.0000  0.0000  0.0000
    11DUM    Ar    8   0.455   0.265   0.385  0.0000  0.0000  0.0000
    11DUM    Ar    9   0.835   0.075   0.195  0.0000  0.0000  0.0000
    11DUM    Ar   10   1.025   0.265   0.195  0.0000  0.0000  0.0000
    11DUM    Ar   11   1.025   0.075   0.385  0.0000  0.0000  0.0000
    11DUM    Ar   12   0.835   0.265   0.385  0.0000  0.0000  0.0000
    11DUM    Ar   13   1.215   0.075   0.195  0.0000  0.0000  0.0000
    11DUM    Ar   14   1.405   0.265   0.195  0.0000  0.0000  0.0000
    11DUM    Ar   15   1.405   0.075   0.385  0.0000  0.0000  0.0000
    11DUM    Ar   16   1.215   0.265   0.385  0.0000  0.0000  0.0000
    11DUM    Ar   17   1.595   0.075   0.195  0.0000  0.0000  0.0000
    11DUM    Ar   18   1.785   0.265   0.195  0.0000  0.0000  0.0000
    11DUM    Ar   19   1.785   0.075   0.385  0.0000  0.0000  0.0000
    11DUM    Ar   20   1.595   0.265   0.385  0.0000  0.0000  0.0000
    11DUM    Ar   21   1.975   0.075   0.195  0.0000  0.0000  0.0000
    11DUM    Ar   22   2.165   0.265   0.195  0.0000  0.0000  0.0000
    11DUM    Ar   23   2.165   0.075   0.385  0.0000  0.0000  0.0000
    11DUM    Ar   24   1.975   0.265   0.385  0.0000  0.0000  0.0000
    11DUM    Ar   25   2.355   0.075   0.195  0.0000  0.0000  0.0000
    11DUM    Ar   26   2.545   0.265   0.195  0.0000  0.0000  0.0000
    11DUM    Ar   27   2.545   0.075   0.385  0.0000  0.0000  0.0000
    11DUM    Ar   28   2.355   0.265   0.385  0.0000  0.0000  0.0000
    11DUM    Ar   29   2.735   0.075   0.195  0.0000  0.0000  0.0000
    11DUM    Ar   30   2.925   0.265   0.195  0.0000  0.0000  0.0000
    11DUM    Ar   31   2.925   0.075   0.385  0.0000  0.0000  0.0000
    11DUM    Ar   32   2.735   0.265   0.385  0.0000  0.0000  0.0000
    11DUM    Ar   33   0.075   0.455   0.195  0.0000  0.0000  0.0000
    11DUM    Ar   34   0.265   0.645   0.195  0.0000  0.0000  0.0000
    11DUM    Ar   35   0.265   0.455   0.385  0.0000  0.0000  0.0000
    11DUM    Ar   36   0.075   0.645   0.385  0.0000  0.0000  0.0000
    11DUM    Ar   37   0.455   0.455   0.195  0.0000  0.0000  0.0000
    11DUM    Ar   38   0.645   0.645   0.195  0.0000  0.0000  0.0000
    11DUM    Ar   39   0.645   0.455   0.385  0.0000  0.0000  0.0000
    11DUM    Ar   40   0.455   0.645   0.385  0.0000  0.0000  0.0000
    11DUM    Ar   41   0.835   0.455   0.195  0.0000  0.0000  0.0000
    11DUM    Ar   42   1.025   0.645   0.195  0.0000  0.0000  0.0000
    11DUM    Ar   43   1.025   0.455   0.385  0.0000  0.0000  0.0000
    11DUM    Ar   44   0.835   0.645   0.385  0.0000  0.0000  0.0000
    11DUM    Ar   45   1.215   0.455   0.195  0.0000  0.0000  0.0000
    11DUM    Ar   46   1.405   0.645   0.195  0.0000  0.0000  0.0000
    11DUM    Ar   47   1.405   0.455   0.385  0.0000  0.0000  0.0000
    11DUM    Ar   48   1.215   0.645   0.385  0.0000  0.0000  0.0000
    11DUM    Ar   49   1.595   0.455   0.195  0.0000  0.0000  0.0000
    11DUM    Ar   50   1.785   0.645   0.195  0.0000  0.0000  0.0000
    11DUM    Ar   51   1.785   0.455   0.385  0.0000  0.0000  0.0000
    11DUM    Ar   52   1.595   0.645   0.385  0.0000  0.0000  0.0000
    11DUM    Ar   53   1.975   0.455   0.195  0.0000  0.0000  0.0000
    11DUM    Ar   54   2.165   0.645   0.195  0.0000  0.0000  0.0000
    11DUM    Ar   55   2.165   0.455   0.385  0.0000  0.0000  0.0000
    11DUM    Ar   56   1.975   0.645   0.385  0.0000  0.0000  0.0000
    11DUM    Ar   57   2.355   0.455   0.195  0.0000  0.0000  0.0000
    11DUM    Ar   58   2.545   0.645   0.195  0.0000  0.0000  0.0000
    11DUM    Ar   59   2.545   0.455   0.385  0.0000  0.0000  0.0000
    11DUM    Ar   60   2.355   0.645   0.385  0.0000  0.0000  0.0000
    11DUM    Ar   61   2.735   0.455   0.195  0.0000  0.0000  0.0000
    11DUM    Ar   62   2.925   0.645   0.195  0.0000  0.0000  0.0000
    11DUM    Ar   63   2.925   0.455   0.385  0.0000  0.0000  0.0000
    11DUM    Ar   64   2.735   0.645   0.385  0.0000  0.0000  0.0000
    11DUM    Ar   65   0.075   0.835   0.195  0.0000  0.0000  0.0000
    11DUM    Ar   66   0.265   1.025   0.195  0.0000  0.0000  0.0000
    11DUM    Ar   67   0.265   0.835   0.385  0.0000  0.0000  0.0000
    11DUM    Ar   68   0.075   1.025   0.385  0.0000  0.0000  0.0000
    11DUM    Ar   69   0.455   0.835   0.195  0.0000  0.0000  0.0000
    11DUM    Ar   70   0.645   1.025   0.195  0.0000  0.0000  0.0000
    11DUM    Ar   71   0.645   0.835   0.385  0.0000  0.0000  0.0000
    11DUM    Ar   72   0.455   1.025   0.385  0.0000  0.0000  0.0000
    11DUM    Ar   73   0.835   0.835   0.195  0.0000  0.0000  0.0000
    11DUM    Ar   74   1.025   1.025   0.195  0.0000  0.0000  0.0000
    11DUM    Ar   75   1.025   0.835   0.385  0.0000  0.0000  0.0000
    11DUM    Ar   76   0.835   1.025   0.385  0.0000  0.0000  0.0000
    11DUM    Ar   77   1.215   0.835   0.195  0.0000  0.0000  0.0000
    11DUM    Ar   78   1.405   0.835   0.385  0.0000  0.0000  0.0000
    11DUM    Ar   79   1.215   1.025   0.385  0.0000  0.0000  0.0000
    11DUM    Ar   80   1.595   0.835   0.195  0.0000  0.0000  0.0000
    11DUM    Ar   81   1.785   1.025   0.195  0.0000  0.0000  0.0000
    11DUM    Ar   82   1.785   0.835   0.385  0.0000  0.0000  0.0000
    11DUM    Ar   83   1.975   0.835   0.195  0.0000  0.0000  0.0000
    11DUM    Ar   84   2.165   1.025   0.195  0.0000  0.0000  0.0000
    11DUM    Ar   85   2.165   0.835   0.385  0.0000  0.0000  0.0000
    11DUM    Ar   86   1.975   1.025   0.385  0.0000  0.0000  0.0000
    11DUM    Ar   87   2.355   0.835   0.195  0.0000  0.0000  0.0000
    11DUM    Ar   88   2.545   1.025   0.195  0.0000  0.0000  0.0000
    11DUM    Ar   89   2.545   0.835   0.385  0.0000  0.0000  0.0000
    11DUM    Ar   90   2.355   1.025   0.385  0.0000  0.0000  0.0000
    11DUM    Ar   91   2.735   0.835   0.195  0.0000  0.0000  0.0000
    11DUM    Ar   92   2.925   1.025   0.195  0.0000  0.0000  0.0000
    11DUM    Ar   93   2.925   0.835   0.385  0.0000  0.0000  0.0000
    11DUM    Ar   94   2.735   1.025   0.385  0.0000  0.0000  0.0000
    11DUM    Ar   95   0.075   1.215   0.195  0.0000  0.0000  0.0000
    11DUM    Ar   96   0.265   1.405   0.195  0.0000  0.0000  0.0000
    11DUM    Ar   97   0.265   1.215   0.385  0.0000  0.0000  0.0000
    11DUM    Ar   98   0.075   1.405   0.385  0.0000  0.0000  0.0000
    11DUM    Ar   99   0.455   1.215   0.195  0.0000  0.0000  0.0000
    11DUM    Ar  100   0.645   1.405   0.195  0.0000  0.0000  0.0000
    11DUM    Ar  101   0.645   1.215   0.385  0.0000  0.0000  0.0000
    11DUM    Ar  102   0.455   1.405   0.385  0.0000  0.0000  0.0000
    11DUM    Ar  103   0.835   1.215   0.195  0.0000  0.0000  0.0000
    11DUM    Ar  104   1.025   1.215   0.385  0.0000  0.0000  0.0000
    11DUM    Ar  105   0.835   1.405   0.385  0.0000  0.0000  0.0000
    11DUM    Ar  106   1.975   1.215   0.195  0.0000  0.0000  0.0000
    11DUM    Ar  107   2.165   1.405   0.195  0.0000  0.0000  0.0000
    11DUM    Ar  108   2.165   1.215   0.385  0.0000  0.0000  0.0000
    11DUM    Ar  109   2.355   1.215   0.195  0.0000  0.0000  0.0000
    11DUM    Ar  110   2.545   1.405   0.195  0.0000  0.0000  0.0000
    11DUM    Ar  111   2.545   1.215   0.385  0.0000  0.0000  0.0000
    11DUM    Ar  112   2.355   1.405   0.385  0.0000  0.0000  0.0000
    11DUM    Ar  113   2.735   1.215   0.195  0.0000  0.0000  0.0000
    11DUM    Ar  114   2.925   1.405   0.195  0.0000  0.0000  0.0000
    11DUM    Ar  115   2.925   1.215   0.385  0.0000  0.0000  0.0000
    11DUM    Ar  116   2.735   1.405   0.385  0.0000  0.0000  0.0000
    11DUM    Ar  117   0.075   1.595   0.195  0.0000  0.0000  0.0000
    11DUM    Ar  118   0.265   1.785   0.195  0.0000  0.0000  0.0000
    11DUM    Ar  119   0.265   1.595   0.385  0.0000  0.0000  0.0000
    11DUM    Ar  120   0.075   1.785   0.385  0.0000  0.0000  0.0000
    11DUM    Ar  121   0.455   1.595   0.195  0.0000  0.0000  0.0000
    11DUM    Ar  122   0.645   1.785   0.195  0.0000  0.0000  0.0000
    11DUM    Ar  123   0.645   1.595   0.385  0.0000  0.0000  0.0000
    11DUM    Ar  124   0.455   1.785   0.385  0.0000  0.0000  0.0000
    11DUM    Ar  125   0.835   1.595   0.195  0.0000  0.0000  0.0000
    11DUM    Ar  126   1.025   1.785   0.195  0.0000  0.0000  0.0000
    11DUM    Ar  127   0.835   1.785   0.385  0.0000  0.0000  0.0000
    11DUM    Ar  128   2.165   1.785   0.195  0.0000  0.0000  0.0000
    11DUM    Ar  129   2.165   1.595   0.385  0.0000  0.0000  0.0000
    11DUM    Ar  130   1.975   1.785   0.385  0.0000  0.0000  0.0000
    11DUM    Ar  131   2.355   1.595   0.195  0.0000  0.0000  0.0000
    11DUM    Ar  132   2.545   1.785   0.195  0.0000  0.0000  0.0000
    11DUM    Ar  133   2.545   1.595   0.385  0.0000  0.0000  0.0000
    11DUM    Ar  134   2.355   1.785   0.385  0.0000  0.0000  0.0000
    11DUM    Ar  135   2.735   1.595   0.195  0.0000  0.0000  0.0000
    11DUM    Ar  136   2.925   1.785   0.195  0.0000  0.0000  0.0000
    11DUM    Ar  137   2.925   1.595   0.385  0.0000  0.0000  0.0000
    11DUM    Ar  138   2.735   1.785   0.385  0.0000  0.0000  0.0000
    11DUM    Ar  139   0.075   1.975   0.195  0.0000  0.0000  0.0000
    11DUM    Ar  140   0.265   2.165   0.195  0.0000  0.0000  0.0000
    11DUM    Ar  141   0.265   1.975   0.385  0.0000  0.0000  0.0000
    11DUM    Ar  142   0.075   2.165   0.385  0.0000  0.0000  0.0000
    11DUM    Ar  143   0.455   1.975   0.195  0.0000  0.0000  0.0000
    11DUM    Ar  144   0.645   2.165   0.195  0.0000  0.0000  0.0000
    11DUM    Ar  145   0.645   1.975   0.385  0.0000  0.0000  0.0000
    11DUM    Ar  146   0.455   2.165   0.385  0.0000  0.0000  0.0000
    11DUM    Ar  147   0.835   1.975   0.195  0.0000  0.0000  0.0000
    11DUM    Ar  148   1.025   2.165   0.195  0.0000  0.0000  0.0000
    11DUM    Ar  149   1.025   1.975   0.385  0.0000  0.0000  0.0000
    11DUM    Ar  150   0.835   2.165   0.385  0.0000  0.0000  0.0000
    11DUM    Ar  151   1.215   1.975   0.195  0.0000  0.0000  0.0000
    11DUM    Ar  152   1.405   2.165   0.195  0.0000  0.0000  0.0000
    11DUM    Ar  153   1.215   2.165   0.385  0.0000  0.0000  0.0000
    11DUM    Ar  154   1.785   2.165   0.195  0.0000  0.0000  0.0000
    11DUM    Ar  155   1.785   1.975   0.385  0.0000  0.0000  0.0000
    11DUM    Ar  156   1.595   2.165   0.385  0.0000  0.0000  0.0000
    11DUM    Ar  157   1.975   1.975   0.195  0.0000  0.0000  0.0000
    11DUM    Ar  158   2.165   2.165   0.195  0.0000  0.0000  0.0000
    11DUM    Ar  159   2.165   1.975   0.385  0.0000  0.0000  0.0000
    11DUM    Ar  160   1.975   2.165   0.385  0.0000  0.0000  0.0000
    11DUM    Ar  161   2.355   1.975   0.195  0.0000  0.0000  0.0000
    11DUM    Ar  162   2.545   2.165   0.195  0.0000  0.0000  0.0000
    11DUM    Ar  163   2.545   1.975   0.385  0.0000  0.0000  0.0000
    11DUM    Ar  164   2.355   2.165   0.385  0.0000  0.0000  0.0000
    11DUM    Ar  165   2.735   1.975   0.195  0.0000  0.0000  0.0000
    11DUM    Ar  166   2.925   2.165   0.195  0.0000  0.0000  0.0000
    11DUM    Ar  167   2.925   1.975   0.385  0.0000  0.0000  0.0000
    11DUM    Ar  168   2.735   2.165   0.385  0.0000  0.0000  0.0000
    11DUM    Ar  169   0.075   2.355   0.195  0.0000  0.0000  0.0000
    11DUM    Ar  170   0.265   2.545   0.195  0.0000  0.0000  0.0000
    11DUM    Ar  171   0.265   2.355   0.385  0.0000  0.0000  0.0000
    11DUM    Ar  172   0.075   2.545   0.385  0.0000  0.0000  0.0000
    11DUM    Ar  173   0.455   2.355   0.195  0.0000  0.0000  0.0000
    11DUM    Ar  174   0.645   2.545   0.195  0.0000  0.0000  0.0000
    11DUM    Ar  175   0.645   2.355   0.385  0.0000  0.0000  0.0000
    11DUM    Ar  176   0.455   2.545   0.385  0.0000  0.0000  0.0000
    11DUM    Ar  177   0.835   2.355   0.195  0.0000  0.0000  0.0000
    11DUM    Ar  178   1.025   2.545   0.195  0.0000  0.0000  0.0000
    11DUM    Ar  179   1.025   2.355   0.385  0.0000  0.0000  0.0000
    11DUM    Ar  180   0.835   2.545   0.385  0.0000  0.0000  0.0000
    11DUM    Ar  181   1.215   2.355   0.195  0.0000  0.0000  0.0000
    11DUM    Ar  182   1.405   2.545   0.195  0.0000  0.0000  0.0000
    11DUM    Ar  183   1.405   2.355   0.385  0.0000  0.0000  0.0000
    11DUM    Ar  184   1.215   2.545   0.385  0.0000  0.0000  0.0000
    11DUM    Ar  185   1.595   2.355   0.195  0.0000  0.0000  0.0000
    11DUM    Ar  186   1.785   2.545   0.195  0.0000  0.0000  0.0000
    11DUM    Ar  187   1.785   2.355   0.385  0.0000  0.0000  0.0000
    11DUM    Ar  188   1.595   2.545   0.385  0.0000  0.0000  0.0000
    11DUM    Ar  189   1.975   2.355   0.195  0.0000  0.0000  0.0000
    11DUM    Ar  190   2.165   2.545   0.195  0.0000  0.0000  0.0000
    11DUM    Ar  191   2.165   2.355   0.385  0.0000  0.0000  0.0000
    11DUM    Ar  192   1.975   2.545   0.385  0.0000  0.0000  0.0000
    11DUM    Ar  193   2.355   2.355   0.195  0.0000  0.0000  0.0000
    11DUM    Ar  194   2.545   2.545   0.195  0.0000  0.0000  0.0000
    11DUM    Ar  195   2.545   2.355   0.385  0.0000  0.0000  0.0000
    11DUM    Ar  196   2.355   2.545   0.385  0.0000  0.0000  0.0000
    11DUM    Ar  197   2.735   2.355   0.195  0.0000  0.0000  0.0000
    11DUM    Ar  198   2.925   2.545   0.195  0.0000  0.0000  0.0000
    11DUM    Ar  199   2.925   2.355   0.385  0.0000  0.0000  0.0000
    11DUM    Ar  200   2.735   2.545   0.385  0.0000  0.0000  0.0000
    11DUM    Ar  201   0.075   2.735   0.195  0.0000  0.0000  0.0000
    11DUM    Ar  202   0.265   2.925   0.195  0.0000  0.0000  0.0000
    11DUM    Ar  203   0.265   2.735   0.385  0.0000  0.0000  0.0000
    11DUM    Ar  204   0.075   2.925   0.385  0.0000  0.0000  0.0000
    11DUM    Ar  205   0.455   2.735   0.195  0.0000  0.0000  0.0000
    11DUM    Ar  206   0.645   2.925   0.195  0.0000  0.0000  0.0000
    11DUM    Ar  207   0.645   2.735   0.385  0.0000  0.0000  0.0000
    11DUM    Ar  208   0.455   2.925   0.385  0.0000  0.0000  0.0000
    11DUM    Ar  209   0.835   2.735   0.195  0.0000  0.0000  0.0000
    11DUM    Ar  210   1.025   2.925   0.195  0.0000  0.0000  0.0000
    11DUM    Ar  211   1.025   2.735   0.385  0.0000  0.0000  0.0000
    11DUM    Ar  212   0.835   2.925   0.385  0.0000  0.0000  0.0000
    11DUM    Ar  213   1.215   2.735   0.195  0.0000  0.0000  0.0000
    11DUM    Ar  214   1.405   2.925   0.195  0.0000  0.0000  0.0000
    11DUM    Ar  215   1.405   2.735   0.385  0.0000  0.0000  0.0000
    11DUM    Ar  216   1.215   2.925   0.385  0.0000  0.0000  0.0000
    11DUM    Ar  217   1.595   2.735   0.195  0.0000  0.0000  0.0000
    11DUM    Ar  218   1.785   2.925   0.195  0.0000  0.0000  0.0000
    11DUM    Ar  219   1.785   2.735   0.385  0.0000  0.0000  0.0000
    11DUM    Ar  220   1.595   2.925   0.385  0.0000  0.0000  0.0000
    11DUM    Ar  221   1.975   2.735   0.195  0.0000  0.0000  0.0000
    11DUM    Ar  222   2.165   2.925   0.195  0.0000  0.0000  0.0000
    11DUM    Ar  223   2.165   2.735   0.385  0.0000  0.0000  0.0000
    11DUM    Ar  224   1.975   2.925   0.385  0.0000  0.0000  0.0000
    11DUM    Ar  225   2.355   2.735   0.195  0.0000  0.0000  0.0000
    11DUM    Ar  226   2.545   2.925   0.195  0.0000  0.0000  0.0000
    11DUM    Ar  227   2.545   2.735   0.385  0.0000  0.0000  0.0000
    11DUM    Ar  228   2.355   2.925   0.385  0.0000  0.0000  0.0000
    11DUM    Ar  229   2.735   2.735   0.195  0.0000  0.0000  0.0000
    11DUM    Ar  230   2.925   2.925   0.195  0.0000  0.0000  0.0000
    11DUM    Ar  231   2.925   2.735   0.385  0.0000  0.0000  0.0000
    11DUM    Ar  232   2.735   2.925   0.385  0.0000  0.0000  0.0000
    11DUM    Ar  233   0.075   0.075   0.575  0.0000  0.0000  0.0000
    11DUM    Ar  234   0.265   0.265   0.575  0.0000  0.0000  0.0000
    11DUM    Ar  235   0.265   0.075   0.765  0.0000  0.0000  0.0000
    11DUM    Ar  236   0.075   0.265   0.765  0.0000  0.0000  0.0000
    11DUM    Ar  237   0.455   0.075   0.575  0.0000  0.0000  0.0000
    11DUM    Ar  238   0.645   0.265   0.575  0.0000  0.0000  0.0000
    11DUM    Ar  239   0.645   0.075   0.765  0.0000  0.0000  0.0000
    11DUM    Ar  240   0.455   0.265   0.765  0.0000  0.0000  0.0000
    11DUM    Ar  241   0.835   0.075   0.575  0.0000  0.0000  0.0000
    11DUM    Ar  242   1.025   0.265   0.575  0.0000  0.0000  0.0000
    11DUM    Ar  243   1.025   0.075   0.765  0.0000  0.0000  0.0000
    11DUM    Ar  244   0.835   0.265   0.765  0.0000  0.0000  0.0000
    11DUM    Ar  245   1.215   0.075   0.575  0.0000  0.0000  0.0000
    11DUM    Ar  246   1.405   0.265   0.575  0.0000  0.0000  0.0000
    11DUM    Ar  247   1.405   0.075   0.765  0.0000  0.0000  0.0000
    11DUM    Ar  248   1.215   0.265   0.765  0.0000  0.0000  0.0000
    11DUM    Ar  249   1.595   0.075   0.575  0.0000  0.0000  0.0000
    11DUM    Ar  250   1.785   0.265   0.575  0.0000  0.0000  0.0000
    11DUM    Ar  251   1.785   0.075   0.765  0.0000  0.0000  0.0000
    11DUM    Ar  252   1.595   0.265   0.765  0.0000  0.0000  0.0000
    11DUM    Ar  253   1.975   0.075   0.575  0.0000  0.0000  0.0000
    11DUM    Ar  254   2.165   0.265   0.575  0.0000  0.0000  0.0000
    11DUM    Ar  255   2.165   0.075   0.765  0.0000  0.0000  0.0000
    11DUM    Ar  256   1.975   0.265   0.765  0.0000  0.0000  0.0000
    11DUM    Ar  257   2.355   0.075   0.575  0.0000  0.0000  0.0000
    11DUM    Ar  258   2.545   0.265   0.575  0.0000  0.0000  0.0000
    11DUM    Ar  259   2.545   0.075   0.765  0.0000  0.0000  0.0000
    11DUM    Ar  260   2.355   0.265   0.765  0.0000  0.0000  0.0000
    11DUM    Ar  261   2.735   0.075   0.575  0.0000  0.0000  0.0000
    11DUM    Ar  262   2.925   0.265   0.575  0.0000  0.0000  0.0000
    11DUM    Ar  263   2.925   0.075   0.765  0.0000  0.0000  0.0000
    11DUM    Ar  264   2.735   0.265   0.765  0.0000  0.0000  0.0000
    11DUM    Ar  265   0.075   0.455   0.575  0.0000  0.0000  0.0000
    11DUM    Ar  266   0.265   0.645   0.575  0.0000  0.0000  0.0000
    11DUM    Ar  267   0.265   0.455   0.765  0.0000  0.0000  0.0000
    11DUM    Ar  268   0.075   0.645   0.765  0.0000  0.0000  0.0000
    11DUM    Ar  269   0.455   0.455   0.575  0.0000  0.0000  0.0000
    11DUM    Ar  270   0.645   0.645   0.575  0.0000  0.0000  0.0000
    11DUM    Ar  271   0.645   0.455   0.765  0.0000  0.0000  0.0000
    11DUM    Ar  272   0.455   0.645   0.765  0.0000  0.0000  0.0000
    11DUM    Ar  273   0.835   0.455   0.575  0.0000  0.0000  0.0000
    11DUM    Ar  274   1.025   0.645   0.575  0.0000  0.0000  0.0000
    11DUM    Ar  275   1.025   0.455   0.765  0.0000  0.0000  0.0000
    11DUM    Ar  276   0.835   0.645   0.765  0.0000  0.0000  0.0000
    11DUM    Ar  277   1.215   0.455   0.575  0.0000  0.0000  0.0000
    11DUM    Ar  278   1.405   0.645   0.575  0.0000  0.0000  0.0000
    11DUM    Ar  279   1.405   0.455   0.765  0.0000  0.0000  0.0000
    11DUM    Ar  280   1.215   0.645   0.765  0.0000  0.0000  0.0000
    11DUM    Ar  281   1.595   0.455   0.575  0.0000  0.0000  0.0000
    11DUM    Ar  282   1.785   0.645   0.575  0.0000  0.0000  0.0000
    11DUM    Ar  283   1.785   0.455   0.765  0.0000  0.0000  0.0000
    11DUM    Ar  284   1.595   0.645   0.765  0.0000  0.0000  0.0000
    11DUM    Ar  285   1.975   0.455   0.575  0.0000  0.0000  0.0000
    11DUM    Ar  286   2.165   0.645   0.575  0.0000  0.0000  0.0000
    11DUM    Ar  287   2.165   0.455   0.765  0.0000  0.0000  0.0000
    11DUM    Ar  288   1.975   0.645   0.765  0.0000  0.0000  0.0000
    11DUM    Ar  289   2.355   0.455   0.575  0.0000  0.0000  0.0000
    11DUM    Ar  290   2.545   0.645   0.575  0.0000  0.0000  0.0000
    11DUM    Ar  291   2.545   0.455   0.765  0.0000  0.0000  0.0000
    11DUM    Ar  292   2.355   0.645   0.765  0.0000  0.0000  0.0000
    11DUM    Ar  293   2.735   0.455   0.575  0.0000  0.0000  0.0000
    11DUM    Ar  294   2.925   0.645   0.575  0.0000  0.0000  0.0000
    11DUM    Ar  295   2.925   0.455   0.765  0.0000  0.0000  0.0000
    11DUM    Ar  296   2.735   0.645   0.765  0.0000  0.0000  0.0000
    11DUM    Ar  297   0.075   0.835   0.575  0.0000  0.0000  0.0000
    11DUM    Ar  298   0.265   1.025   0.575  0.0000  0.0000  0.0000
    11DUM    Ar  299   0.265   0.835   0.765  0.0000  0.0000  0.0000
    11DUM    Ar  300   0.075   1.025   0.765  0.0000  0.0000  0.0000
    11DUM    Ar  301   0.455   0.835   0.575  0.0000  0.0000  0.0000
    11DUM    Ar  302   0.645   1.025   0.575  0.0000  0.0000  0.0000
    11DUM    Ar  303   0.645   0.835   0.765  0.0000  0.0000  0.0000
    11DUM    Ar  304   0.455   1.025   0.765  0.0000  0.0000  0.0000
    11DUM    Ar  305   0.835   0.835   0.575  0.0000  0.0000  0.0000
    11DUM    Ar  306   1.025   1.025   0.575  0.0000  0.0000  0.0000
    11DUM    Ar  307   1.025   0.835   0.765  0.0000  0.0000  0.0000
    11DUM    Ar  308   0.835   1.025   0.765  0.0000  0.0000  0.0000
    11DUM    Ar  309   1.215   0.835   0.575  0.0000  0.0000  0.0000
    11DUM    Ar  310   1.405   0.835   0.765  0.0000  0.0000  0.0000
    11DUM    Ar  311   1.215   1.025   0.765  0.0000  0.0000  0.0000
    11DUM    Ar  312   1.595   0.835   0.575  0.0000  0.0000  0.0000
    11DUM    Ar  313   1.785   1.025   0.575  0.0000  0.0000  0.0000
    11DUM    Ar  314   1.785   0.835   0.765  0.0000  0.0000  0.0000
    11DUM    Ar  315   1.975   0.835   0.575  0.0000  0.0000  0.0000
    11DUM    Ar  316   2.165   1.025   0.575  0.0000  0.0000  0.0000
    11DUM    Ar  317   2.165   0.835   0.765  0.0000  0.0000  0.0000
    11DUM    Ar  318   1.975   1.025   0.765  0.0000  0.0000  0.0000
    11DUM    Ar  319   2.355   0.835   0.575  0.0000  0.0000  0.0000
    11DUM    Ar  320   2.545   1.025   0.575  0.0000  0.0000  0.0000
    11DUM    Ar  321   2.545   0.835   0.765  0.0000  0.0000  0.0000
    11DUM    Ar  322   2.355   1.025   0.765  0.0000  0.0000  0.0000
    11DUM    Ar  323   2.735   0.835   0.575  0.0000  0.0000  0.0000
    11DUM    Ar  324   2.925   1.025   0.575  0.0000  0.0000  0.0000
    11DUM    Ar  325   2.925   0.835   0.765  0.0000  0.0000  0.0000
    11DUM    Ar  326   2.735   1.025   0.765  0.0000  0.0000  0.0000
    11DUM    Ar  327   0.075   1.215   0.575  0.0000  0.0000  0.0000
    11DUM    Ar  328   0.265   1.405   0.575  0.0000  0.0000  0.0000
    11DUM    Ar  329   0.265   1.215   0.765  0.0000  0.0000  0.0000
    11DUM    Ar  330   0.075   1.405   0.765  0.0000  0.0000  0.0000
    11DUM    Ar  331   0.455   1.215   0.575  0.0000  0.0000  0.0000
    11DUM    Ar  332   0.645   1.405   0.575  0.0000  0.0000  0.0000
    11DUM    Ar  333   0.645   1.215   0.765  0.0000  0.0000  0.0000
    11DUM    Ar  334   0.455   1.405   0.765  0.0000  0.0000  0.0000
    11DUM    Ar  335   0.835   1.215   0.575  0.0000  0.0000  0.0000
    11DUM    Ar  336   1.025   1.215   0.765  0.0000  0.0000  0.0000
    11DUM    Ar  337   0.835   1.405   0.765  0.0000  0.0000  0.0000
    11DUM    Ar  338   1.975   1.215   0.575  0.0000  0.0000  0.0000
    11DUM    Ar  339   2.165   1.405   0.575  0.0000  0.0000  0.0000
    11DUM    Ar  340   2.165   1.215   0.765  0.0000  0.0000  0.0000
    11DUM    Ar  341   2.355   1.215   0.575  0.0000  0.0000  0.0000
    11DUM    Ar  342   2.545   1.405   0.575  0.0000  0.0000  0.0000
    11DUM    Ar  343   2.545   1.215   0.765  0.0000  0.0000  0.0000
    11DUM    Ar  344   2.355   1.405   0.765  0.0000  0.0000  0.0000
    11DUM    Ar  345   2.735   1.215   0.575  0.0000  0.0000  0.0000
    11DUM    Ar  346   2.925   1.405   0.575  0.0000  0.0000  0.0000
    11DUM    Ar  347   2.925   1.215   0.765  0.0000  0.0000  0.0000
    11DUM    Ar  348   2.735   1.405   0.765  0.0000  0.0000  0.0000
    11DUM    Ar  349   0.075   1.595   0.575  0.0000  0.0000  0.0000
    11DUM    Ar  350   0.265   1.785   0.575  0.0000  0.0000  0.0000
    11DUM    Ar  351   0.265   1.595   0.765  0.0000  0.0000  0.0000
    11DUM    Ar  352   0.075   1.785   0.765  0.0000  0.0000  0.0000
    11DUM    Ar  353   0.455   1.595   0.575  0.0000  0.0000  0.0000
    11DUM    Ar  354   0.645   1.785   0.575  0.0000  0.0000  0.0000
    11DUM    Ar  355   0.645   1.595   0.765  0.0000  0.0000  0.0000
    11DUM    Ar  356   0.455   1.785   0.765  0.0000  0.0000  0.0000
    11DUM    Ar  357   0.835   1.595   0.575  0.0000  0.0000  0.0000
    11DUM    Ar  358   1.025   1.785   0.575  0.0000  0.0000  0.0000
    11DUM    Ar  359   0.835   1.785   0.765  0.0000  0.0000  0.0000
    11DUM    Ar  360   2.165   1.785   0.575  0.0000  0.0000  0.0000
    11DUM    Ar  361   2.165   1.595   0.765  0.0000  0.0000  0.0000
    11DUM    Ar  362   1.975   1.785   0.765  0.0000  0.0000  0.0000
    11DUM    Ar  363   2.355   1.595   0.575  0.0000  0.0000  0.0000
    11DUM    Ar  364   2.545   1.785   0.575  0.0000  0.0000  0.0000
    11DUM    Ar  365   2.545   1.595   0.765  0.0000  0.0000  0.0000
    11DUM    Ar  366   2.355   1.785   0.765  0.0000  0.0000  0.0000
    11DUM    Ar  367   2.735   1.595   0.575  0.0000  0.0000  0.0000
    11DUM    Ar  368   2.925   1.785   0.575  0.0000  0.0000  0.0000
    11DUM    Ar  369   2.925   1.595   0.765  0.0000  0.0000  0.0000
    11DUM    Ar  370   2.735   1.785   0.765  0.0000  0.0000  0.0000
    11DUM    Ar  371   0.075   1.975   0.575  0.0000  0.0000  0.0000
    11DUM    Ar  372   0.265   2.165   0.575  0.0000  0.0000  0.0000
    11DUM    Ar  373   0.265   1.975   0.765  0.0000  0.0000  0.0000
    11DUM    Ar  374   0.075   2.165   0.765  0.0000  0.0000  0.0000
    11DUM    Ar  375   0.455   1.975   0.575  0.0000  0.0000  0.0000
    11DUM    Ar  376   0.645   2.165   0.575  0.0000  0.0000  0.0000
    11DUM    Ar  377   0.645   1.975   0.765  0.0000  0.0000  0.0000
    11DUM    Ar  378   0.455   2.165   0.765  0.0000  0.0000  0.0000
    11DUM    Ar  379   0.835   1.975   0.575  0.0000  0.0000  0.0000
    11DUM    Ar  380   1.025   2.165   0.575  0.0000  0.0000  0.0000
    11DUM    Ar  381   1.025   1.975   0.765  0.0000  0.0000  0.0000
    11DUM    Ar  382   0.835   2.165   0.765  0.0000  0.0000  0.0000
    11DUM    Ar  383   1.215   1.975   0.575  0.0000  0.0000  0.0000
    11DUM    Ar  384   1.405   2.165   0.575  0.0000  0.0000  0.0000
    11DUM    Ar  385   1.215   2.165   0.765  0.0000  0.0000  0.0000
    11DUM    Ar  386   1.785   2.165   0.575  0.0000  0.0000  0.0000
    11DUM    Ar  387   1.785   1.975   0.765  0.0000  0.0000  0.0000
    11DUM    Ar  388   1.595   2.165   0.765  0.0000  0.0000  0.0000
    11DUM    Ar  389   1.975   1.975   0.575  0.0000  0.0000  0.0000
    11DUM    Ar  390   2.165   2.165   0.575  0.0000  0.0000  0.0000
    11DUM    Ar  391   2.165   1.975   0.765  0.0000  0.0000  0.0000
    11DUM    Ar  392   1.975   2.165   0.765  0.0000  0.0000  0.0000
    11DUM    Ar  393   2.355   1.975   0.575  0.0000  0.0000  0.0000
    11DUM    Ar  394   2.545   2.165   0.575  0.0000  0.0000  0.0000
    11DUM    Ar  395   2.545   1.975   0.765  0.0000  0.0000  0.0000
    11DUM    Ar  396   2.355   2.165   0.765  0.0000  0.0000  0.0000
    11DUM    Ar  397   2.735   1.975   0.575  0.0000  0.0000  0.0000
    11DUM    Ar  398   2.925   2.165   0.575  0.0000  0.0000  0.0000
    11DUM    Ar  399   2.925   1.975   0.765  0.0000  0.0000  0.0000
    11DUM    Ar  400   2.735   2.165   0.765  0.0000  0.0000  0.0000
    11DUM    Ar  401   0.075   2.355   0.575  0.0000  0.0000  0.0000
    11DUM    Ar  402   0.265   2.545   0.575  0.0000  0.0000  0.0000
    11DUM    Ar  403   0.265   2.355   0.765  0.0000  0.0000  0.0000
    11DUM    Ar  404   0.075   2.545   0.765  0.0000  0.0000  0.0000
    11DUM    Ar  405   0.455   2.355   0.575  0.0000  0.0000  0.0000
    11DUM    Ar  406   0.645   2.545   0.575  0.0000  0.0000  0.0000
    11DUM    Ar  407   0.645   2.355   0.765  0.0000  0.0000  0.0000
    11DUM    Ar  408   0.455   2.545   0.765  0.0000  0.0000  0.0000
    11DUM    Ar  409   0.835   2.355   0.575  0.0000  0.0000  0.0000
    11DUM    Ar  410   1.025   2.545   0.575  0.0000  0.0000  0.0000
    11DUM    Ar  411   1.025   2.355   0.765  0.0000  0.0000  0.0000
    11DUM    Ar  412   0.835   2.545   0.765  0.0000  0.0000  0.0000
    11DUM    Ar  413   1.215   2.355   0.575  0.0000  0.0000  0.0000
    11DUM    Ar  414   1.405   2.545   0.575  0.0000  0.0000  0.0000
    11DUM    Ar  415   1.405   2.355   0.765  0.0000  0.0000  0.0000
    11DUM    Ar  416   1.215   2.545   0.765  0.0000  0.0000  0.0000
    11DUM    Ar  417   1.595   2.355   0.575  0.0000  0.0000  0.0000
    11DUM    Ar  418   1.785   2.545   0.575  0.0000  0.0000  0.0000
    11DUM    Ar  419   1.785   2.355   0.765  0.0000  0.0000  0.0000
    11DUM    Ar  420   1.595   2.545   0.765  0.0000  0.0000  0.0000
    11DUM    Ar  421   1.975   2.355   0.575  0.0000  0.0000  0.0000
    11DUM    Ar  422   2.165   2.545   0.575  0.0000  0.0000  0.0000
    11DUM    Ar  423   2.165   2.355   0.765  0.0000  0.0000  0.0000
    11DUM    Ar  424   1.975   2.545   0.765  0.0000  0.0000  0.0000
    11DUM    Ar  425   2.355   2.355   0.575  0.0000  0.0000  0.0000
    11DUM    Ar  426   2.545   2.545   0.575  0.0000  0.0000  0.0000
    11DUM    Ar  427   2.545   2.355   0.765  0.0000  0.0000  0.0000
    11DUM    Ar  428   2.355   2.545   0.765  0.0000  0.0000  0.0000
    11DUM    Ar  429   2.735   2.355   0.575  0.0000  0.0000  0.0000
    11DUM    Ar  430   2.925   2.545   0.575  0.0000  0.0000  0.0000
    11DUM    Ar  431   2.925   2.355   0.765  0.0000  0.0000  0.0000
    11DUM    Ar  432   2.735   2.545   0.765  0.0000  0.0000  0.0000
    11DUM    Ar  433   0.075   2.735   0.575  0.0000  0.0000  0.0000
    11DUM    Ar  434   0.265   2.925   0.575  0.0000  0.0000  0.0000
    11DUM    Ar  435   0.265   2.735   0.765  0.0000  0.0000  0.0000
    11DUM    Ar  436   0.075   2.925   0.765  0.0000  0.0000  0.0000
    11DUM    Ar  437   0.455   2.735   0.575  0.0000  0.0000  0.0000
    11DUM    Ar  438   0.645   2.925   0.575  0.0000  0.0000  0.0000
    11DUM    Ar  439   0.645   2.735   0.765  0.0000  0.0000  0.0000
    11DUM    Ar  440   0.455   2.925   0.765  0.0000  0.0000  0.0000
    11DUM    Ar  441   0.835   2.735   0.575  0.0000  0.0000  0.0000
    11DUM    Ar  442   1.025   2.925   0.575  0.0000  0.0000  0.0000
    11DUM    Ar  443   1.025   2.735   0.765  0.0000  0.0000  0.0000
    11DUM    Ar  444   0.835   2.925   0.765  0.0000  0.0000  0.0000
    11DUM    Ar  445   1.215   2.735   0.575  0.0000  0.0000  0.0000
    11DUM    Ar  446   1.405   2.925   0.575  0.0000  0.0000  0.0000
    11DUM    Ar  447   1.405   2.735   0.765  0.0000  0.0000  0.0000
    11DUM    Ar  448   1.215   2.925   0.765  0.0000  0.0000  0.0000
    11DUM    Ar  449   1.595   2.735   0.575  0.0000  0.0000  0.0000
    11DUM    Ar  450   1.785   2.925   0.575  0.0000  0.0000  0.0000
    11DUM    Ar  451   1.785   2.735   0.765  0.0000  0.0000  0.0000
    11DUM    Ar  452   1.595   2.925   0.765  0.0000  0.0000  0.0000
    11DUM    Ar  453   1.975   2.735   0.575  0.0000  0.0000  0.0000
    11DUM    Ar  454   2.165   2.925   0.575  0.0000  0.0000  0.0000
    11DUM    Ar  455   2.165   2.735   0.765  0.0000  0.0000  0.0000
    11DUM    Ar  456   1.975   2.925   0.765  0.0000  0.0000  0.0000
    11DUM    Ar  457   2.355   2.735   0.575  0.0000  0.0000  0.0000
    11DUM    Ar  458   2.545   2.925   0.575  0.0000  0.0000  0.0000
    11DUM    Ar  459   2.545   2.735   0.765  0.0000  0.0000  0.0000
    11DUM    Ar  460   2.355   2.925   0.765  0.0000  0.0000  0.0000
    11DUM    Ar  461   2.735   2.735   0.575  0.0000  0.0000  0.0000
    11DUM    Ar  462   2.925   2.925   0.575  0.0000  0.0000  0.0000
    11DUM    Ar  463   2.925   2.735   0.765  0.0000  0.0000  0.0000
    11DUM    Ar  464   2.735   2.925   0.765  0.0000  0.0000  0.0000
    11DUM    Ar  465   0.075   0.075   0.955  0.0000  0.0000  0.0000
    11DUM    Ar  466   0.265   0.265   0.955  0.0000  0.0000  0.0000
    11DUM    Ar  467   0.265   0.075   1.145  0.0000  0.0000  0.0000
    11DUM    Ar  468   0.075   0.265   1.145  0.0000  0.0000  0.0000
    11DUM    Ar  469   0.455   0.075   0.955  0.0000  0.0000  0.0000
    11DUM    Ar  470   0.645   0.265   0.955  0.0000  0.0000  0.0000
    11DUM    Ar  471   0.645   0.075   1.145  0.0000  0.0000  0.0000
    11DUM    Ar  472   0.455   0.265   1.145  0.0000  0.0000  0.0000
    11DUM    Ar  473   0.835   0.075   0.955  0.0000  0.0000  0.0000
    11DUM    Ar  474   1.025   0.265   0.955  0.0000  0.0000  0.0000
    11DUM    Ar  475   1.025   0.075   1.145  0.0000  0.0000  0.0000
    11DUM    Ar  476   0.835   0.265   1.145  0.0000  0.0000  0.0000
    11DUM    Ar  477   1.215   0.075   0.955  0.0000  0.0000  0.0000
    11DUM    Ar  478   1.405   0.265   0.955  0.0000  0.0000  0.0000
    11DUM    Ar  479   1.405   0.075   1.145  0.0000  0.0000  0.0000
    11DUM    Ar  480   1.215   0.265   1.145  0.0000  0.0000  0.0000
    11DUM    Ar  481   1.595   0.075   0.955  0.0000  0.0000  0.0000
    11DUM    Ar  482   1.785   0.265   0.955  0.0000  0.0000  0.0000
    11DUM    Ar  483   1.785   0.075   1.145  0.0000  0.0000  0.0000
    11DUM    Ar  484   1.595   0.265   1.145  0.0000  0.0000  0.0000
    11DUM    Ar  485   1.975   0.075   0.955  0.0000  0.0000  0.0000
    11DUM    Ar  486   2.165   0.265   0.955  0.0000  0.0000  0.0000
    11DUM    Ar  487   2.165   0.075   1.145  0.0000  0.0000  0.0000
    11DUM    Ar  488   1.975   0.265   1.145  0.0000  0.0000  0.0000
    11DUM    Ar  489   2.355   0.075   0.955  0.0000  0.0000  0.0000
    11DUM    Ar  490   2.545   0.265   0.955  0.0000  0.0000  0.0000
    11DUM    Ar  491   2.545   0.075   1.145  0.0000  0.0000  0.0000
    11DUM    Ar  492   2.355   0.265   1.145  0.0000  0.0000  0.0000
    11DUM    Ar  493   2.735   0.075   0.955  0.0000  0.0000  0.0000
    11DUM    Ar  494   2.925   0.265   0.955  0.0000  0.0000  0.0000
    11DUM    Ar  495   2.925   0.075   1.145  0.0000  0.0000  0.0000
    11DUM    Ar  496   2.735   0.265   1.145  0.0000  0.0000  0.0000
    11DUM    Ar  497   0.075   0.455   0.955  0.0000  0.0000  0.0000
    11DUM    Ar  498   0.265   0.645   0.955  0.0000  0.0000  0.0000
    11DUM    Ar  499   0.265   0.455   1.145  0.0000  0.0000  0.0000
    11DUM    Ar  500   0.075   0.645   1.145  0.0000  0.0000  0.0000
    11DUM    Ar  501   0.455   0.455   0.955  0.0000  0.0000  0.0000
    11DUM    Ar  502   0.645   0.645   0.955  0.0000  0.0000  0.0000
    11DUM    Ar  503   0.645   0.455   1.145  0.0000  0.0000  0.0000
    11DUM    Ar  504   0.455   0.645   1.145  0.0000  0.0000  0.0000
    11DUM    Ar  505   0.835   0.455   0.955  0.0000  0.0000  0.0000
    11DUM    Ar  506   1.025   0.645   0.955  0.0000  0.0000  0.0000
    11DUM    Ar  507   1.025   0.455   1.145  0.0000  0.0000  0.0000
    11DUM    Ar  508   0.835   0.645   1.145  0.0000  0.0000  0.0000
    11DUM    Ar  509   1.215   0.455   0.955  0.0000  0.0000  0.0000
    11DUM    Ar  510   1.405   0.645   0.955  0.0000  0.0000  0.0000
    11DUM    Ar  511   1.405   0.455   1.145  0.0000  0.0000  0.0000
    11DUM    Ar  512   1.215   0.645   1.145  0.0000  0.0000  0.0000
    11DUM    Ar  513   1.595   0.455   0.955  0.0000  0.0000  0.0000
    11DUM    Ar  514   1.785   0.645   0.955  0.0000  0.0000  0.0000
    11DUM    Ar  515   1.785   0.455   1.145  0.0000  0.0000  0.0000
    11DUM    Ar  516   1.595   0.645   1.145  0.0000  0.0000  0.0000
    11DUM    Ar  517   1.975   0.455   0.955  0.0000  0.0000  0.0000
    11DUM    Ar  518   2.165   0.645   0.955  0.0000  0.0000  0.0000
    11DUM    Ar  519   2.165   0.455   1.145  0.0000  0.0000  0.0000
    11DUM    Ar  520   1.975   0.645   1.145  0.0000  0.0000  0.0000
    11DUM    Ar  521   2.355   0.455   0.955  0.0000  0.0000  0.0000
    11DUM    Ar  522   2.545   0.645   0.955  0.0000  0.0000  0.0000
    11DUM    Ar  523   2.545   0.455   1.145  0.0000  0.0000  0.0000
    11DUM    Ar  524   2.355   0.645   1.145  0.0000  0.0000  0.0000
    11DUM    Ar  525   2.735   0.455   0.955  0.0000  0.0000  0.0000
    11DUM    Ar  526   2.925   0.645   0.955  0.0000  0.0000  0.0000
    11DUM    Ar  527   2.925   0.455   1.145  0.0000  0.0000  0.0000
    11DUM    Ar  528   2.735   0.645   1.145  0.0000  0.0000  0.0000
    11DUM    Ar  529   0.075   0.835   0.955  0.0000  0.0000  0.0000
    11DUM    Ar  530   0.265   1.025   0.955  0.0000  0.0000  0.0000
    11DUM    Ar  531   0.265   0.835   1.145  0.0000  0.0000  0.0000
    11DUM    Ar  532   0.075   1.025   1.145  0.0000  0.0000  0.0000
    11DUM    Ar  533   0.455   0.835   0.955  0.0000  0.0000  0.0000
    11DUM    Ar  534   0.645   1.025   0.955  0.0000  0.0000  0.0000
    11DUM    Ar  535   0.645   0.835   1.145  0.0000  0.0000  0.0000
    11DUM    Ar  536   0.455   1.025   1.145  0.0000  0.0000  0.0000
    11DUM    Ar  537   0.835   0.835   0.955  0.0000  0.0000  0.0000
    11DUM    Ar  538   1.025   1.025   0.955  0.0000  0.0000  0.0000
    11DUM    Ar  539   1.025   0.835   1.145  0.0000  0.0000  0.0000
    11DUM    Ar  540   0.835   1.025   1.145  0.0000  0.0000  0.0000
    11DUM    Ar  541   1.215   0.835   0.955  0.0000  0.0000  0.0000
    11DUM    Ar  542   1.405   0.835   1.145  0.0000  0.0000  0.0000
    11DUM    Ar  543   1.215   1.025   1.145  0.0000  0.0000  0.0000
    11DUM    Ar  544   1.595   0.835   0.955  0.0000  0.0000  0.0000
    11DUM    Ar  545   1.785   1.025   0.955  0.0000  0.0000  0.0000
    11DUM    Ar  546   1.785   0.835   1.145  0.0000  0.0000  0.0000
    11DUM    Ar  547   1.975   0.835   0.955  0.0000  0.0000  0.0000
    11DUM    Ar  548   2.165   1.025   0.955  0.0000  0.0000  0.0000
    11DUM    Ar  549   2.165   0.835   1.145  0.0000  0.0000  0.0000
    11DUM    Ar  550   1.975   1.025   1.145  0.0000  0.0000  0.0000
    11DUM    Ar  551   2.355   0.835   0.955  0.0000  0.0000  0.0000
    11DUM    Ar  552   2.545   1.025   0.955  0.0000  0.0000  0.0000
    11DUM    Ar  553   2.545   0.835   1.145  0.0000  0.0000  0.0000
    11DUM    Ar  554   2.355   1.025   1.145  0.0000  0.0000  0.0000
    11DUM    Ar  555   2.735   0.835   0.955  0.0000  0.0000  0.0000
    11DUM    Ar  556   2.925   1.025   0.955  0.0000  0.0000  0.0000
    11DUM    Ar  557   2.925   0.835   1.145  0.0000  0.0000  0.0000
    11DUM    Ar  558   2.735   1.025   1.145  0.0000  0.0000  0.0000
    11DUM    Ar  559   0.075   1.215   0.955  0.0000  0.0000  0.0000
    11DUM    Ar  560   0.265   1.405   0.955  0.0000  0.0000  0.0000
    11DUM    Ar  561   0.265   1.215   1.145  0.0000  0.0000  0.0000
    11DUM    Ar  562   0.075   1.405   1.145  0.0000  0.0000  0.0000
    11DUM    Ar  563   0.455   1.215   0.955  0.0000  0.0000  0.0000
    11DUM    Ar  564   0.645   1.405   0.955  0.0000  0.0000  0.0000
    11DUM    Ar  565   0.645   1.215   1.145  0.0000  0.0000  0.0000
    11DUM    Ar  566   0.455   1.405   1.145  0.0000  0.0000  0.0000
    11DUM    Ar  567   0.835   1.215   0.955  0.0000  0.0000  0.0000
    11DUM    Ar  568   1.025   1.215   1.145  0.0000  0.0000  0.0000
    11DUM    Ar  569   0.835   1.405   1.145  0.0000  0.0000  0.0000
    11DUM    Ar  570   1.975   1.215   0.955  0.0000  0.0000  0.0000
    11DUM    Ar  571   2.165   1.405   0.955  0.0000  0.0000  0.0000
    11DUM    Ar  572   2.165   1.215   1.145  0.0000  0.0000  0.0000
    11DUM    Ar  573   2.355   1.215   0.955  0.0000  0.0000  0.0000
    11DUM    Ar  574   2.545   1.405   0.955  0.0000  0.0000  0.0000
    11DUM    Ar  575   2.545   1.215   1.145  0.0000  0.0000  0.0000
    11DUM    Ar  576   2.355   1.405   1.145  0.0000  0.0000  0.0000
    11DUM    Ar  577   2.735   1.215   0.955  0.0000  0.0000  0.0000
    11DUM    Ar  578   2.925   1.405   0.955  0.0000  0.0000  0.0000
    11DUM    Ar  579   2.925   1.215   1.145  0.0000  0.0000  0.0000
    11DUM    Ar  580   2.735   1.405   1.145  0.0000  0.0000  0.0000
    11DUM    Ar  581   0.075   1.595   0.955  0.0000  0.0000  0.0000
    11DUM    Ar  582   0.265   1.785   0.955  0.0000  0.0000  0.0000
    11DUM    Ar  583   0.265   1.595   1.145  0.0000  0.0000  0.0000
    11DUM    Ar  584   0.075   1.785   1.145  0.0000  0.0000  0.0000
    11DUM    Ar  585   0.455   1.595   0.955  0.0000  0.0000  0.0000
    11DUM    Ar  586   0.645   1.785   0.955  0.0000  0.0000  0.0000
    11DUM    Ar  587   0.645   1.595   1.145  0.0000  0.0000  0.0000
    11DUM    Ar  588   0.455   1.785   1.145  0.0000  0.0000  0.0000
    11DUM    Ar  589   0.835   1.595   0.955  0.0000  0.0000  0.0000
    11DUM    Ar  590   1.025   1.785   0.955  0.0000  0.0000  0.0000
    11DUM    Ar  591   0.835   1.785   1.145  0.0000  0.0000  0.0000
    11DUM    Ar  592   2.165   1.785   0.955  0.0000  0.0000  0.0000
    11DUM    Ar  593   2.165   1.595   1.145  0.0000  0.0000  0.0000
    11DUM    Ar  594   1.975   1.785   1.145  0.0000  0.0000  0.0000
    11DUM    Ar  595   2.355   1.595   0.955  0.0000  0.0000  0.0000
    11DUM    Ar  596   2.545   1.785   0.955  0.0000  0.0000  0.0000
    11DUM    Ar  597   2.545   1.595   1.145  0.0000  0.0000  0.0000
    11DUM    Ar  598   2.355   1.785   1.145  0.0000  0.0000  0.0000
    11DUM    Ar  599   2.735   1.595   0.955  0.0000  0.0000  0.0000
    11DUM    Ar  600   2.925   1.785   0.955  0.0000  0.0000  0.0000
    11DUM    Ar  601   2.925   1.595   1.145  0.0000  0.0000  0.0000
    11DUM    Ar  602   2.735   1.785   1.145  0.0000  0.0000  0.0000
    11DUM    Ar  603   0.075   1.975   0.955  0.0000  0.0000  0.0000
    11DUM    Ar  604   0.265   2.165   0.955  0.0000  0.0000  0.0000
    11DUM    Ar  605   0.265   1.975   1.145  0.0000  0.0000  0.0000
    11DUM    Ar  606   0.075   2.165   1.145  0.0000  0.0000  0.0000
    11DUM    Ar  607   0.455   1.975   0.955  0.0000  0.0000  0.0000
    11DUM    Ar  608   0.645   2.165   0.955  0.0000  0.0000  0.0000
    11DUM    Ar  609   0.645   1.975   1.145  0.0000  0.0000  0.0000
    11DUM    Ar  610   0.455   2.165   1.145  0.0000  0.0000  0.0000
    11DUM    Ar  611   0.835   1.975   0.955  0.0000  0.0000  0.0000
    11DUM    Ar  612   1.025   2.165   0.955  0.0000  0.0000  0.0000
    11DUM    Ar  613   1.025   1.975   1.145  0.0000  0.0000  0.0000
    11DUM    Ar  614   0.835   2.165   1.145  0.0000  0.0000  0.0000
    11DUM    Ar  615   1.215   1.975   0.955  0.0000  0.0000  0.0000
    11DUM    Ar  616   1.405   2.165   0.955  0.0000  0.0000  0.0000
    11DUM    Ar  617   1.215   2.165   1.145  0.0000  0.0000  0.0000
    11DUM    Ar  618   1.785   2.165   0.955  0.0000  0.0000  0.0000
    11DUM    Ar  619   1.785   1.975   1.145  0.0000  0.0000  0.0000
    11DUM    Ar  620   1.595   2.165   1.145  0.0000  0.0000  0.0000
    11DUM    Ar  621   1.975   1.975   0.955  0.0000  0.0000  0.0000
    11DUM    Ar  622   2.165   2.165   0.955  0.0000  0.0000  0.0000
    11DUM    Ar  623   2.165   1.975   1.145  0.0000  0.0000  0.0000
    11DUM    Ar  624   1.975   2.165   1.145  0.0000  0.0000  0.0000
    11DUM    Ar  625   2.355   1.975   0.955  0.0000  0.0000  0.0000
    11DUM    Ar  626   2.545   2.165   0.955  0.0000  0.0000  0.0000
    11DUM    Ar  627   2.545   1.975   1.145  0.0000  0.0000  0.0000
    11DUM    Ar  628   2.355   2.165   1.145  0.0000  0.0000  0.0000
    11DUM    Ar  629   2.735   1.975   0.955  0.0000  0.0000  0.0000
    11DUM    Ar  630   2.925   2.165   0.955  0.0000  0.0000  0.0000
    11DUM    Ar  631   2.925   1.975   1.145  0.0000  0.0000  0.0000
    11DUM    Ar  632   2.735   2.165   1.145  0.0000  0.0000  0.0000
    11DUM    Ar  633   0.075   2.355   0.955  0.0000  0.0000  0.0000
    11DUM    Ar  634   0.265   2.545   0.955  0.0000  0.0000  0.0000
    11DUM    Ar  635   0.265   2.355   1.145  0.0000  0.0000  0.0000
    11DUM    Ar  636   0.075   2.545   1.145  0.0000  0.0000  0.0000
    11DUM    Ar  637   0.455   2.355   0.955  0.0000  0.0000  0.0000
    11DUM    Ar  638   0.645   2.545   0.955  0.0000  0.0000  0.0000
    11DUM    Ar  639   0.645   2.355   1.145  0.0000  0.0000  0.0000
    11DUM    Ar  640   0.455   2.545   1.145  0.0000  0.0000  0.0000
    11DUM    Ar  641   0.835   2.355   0.955  0.0000  0.0000  0.0000
    11DUM    Ar  642   1.025   2.545   0.955  0.0000  0.0000  0.0000
    11DUM    Ar  643   1.025   2.355   1.145  0.0000  0.0000  0.0000
    11DUM    Ar  644   0.835   2.545   1.145  0.0000  0.0000  0.0000
    11DUM    Ar  645   1.215   2.355   0.955  0.0000  0.0000  0.0000
    11DUM    Ar  646   1.405   2.545   0.955  0.0000  0.0000  0.0000
    11DUM    Ar  647   1.405   2.355   1.145  0.0000  0.0000  0.0000
    11DUM    Ar  648   1.215   2.545   1.145  0.0000  0.0000  0.0000
    11DUM    Ar  649   1.595   2.355   0.955  0.0000  0.0000  0.0000
    11DUM    Ar  650   1.785   2.545   0.955  0.0000  0.0000  0.0000
    11DUM    Ar  651   1.785   2.355   1.145  0.0000  0.0000  0.0000
    11DUM    Ar  652   1.595   2.545   1.145  0.0000  0.0000  0.0000
    11DUM    Ar  653   1.975   2.355   0.955  0.0000  0.0000  0.0000
    11DUM    Ar  654   2.165   2.545   0.955  0.0000  0.0000  0.0000
    11DUM    Ar  655   2.165   2.355   1.145  0.0000  0.0000  0.0000
    11DUM    Ar  656   1.975   2.545   1.145  0.0000  0.0000  0.0000
    11DUM    Ar  657   2.355   2.355   0.955  0.0000  0.0000  0.0000
    11DUM    Ar  658   2.545   2.545   0.955  0.0000  0.0000  0.0000
    11DUM    Ar  659   2.545   2.355   1.145  0.0000  0.0000  0.0000
    11DUM    Ar  660   2.355   2.545   1.145  0.0000  0.0000  0.0000
    11DUM    Ar  661   2.735   2.355   0.955  0.0000  0.0000  0.0000
    11DUM    Ar  662   2.925   2.545   0.955  0.0000  0.0000  0.0000
    11DUM    Ar  663   2.925   2.355   1.145  0.0000  0.0000  0.0000
    11DUM    Ar  664   2.735   2.545   1.145  0.0000  0.0000  0.0000
    11DUM    Ar  665   0.075   2.735   0.955  0.0000  0.0000  0.0000
    11DUM    Ar  666   0.265   2.925   0.955  0.0000  0.0000  0.0000
    11DUM    Ar  667   0.265   2.735   1.145  0.0000  0.0000  0.0000
    11DUM    Ar  668   0.075   2.925   1.145  0.0000  0.0000  0.0000
    11DUM    Ar  669   0.455   2.735   0.955  0.0000  0.0000  0.0000
    11DUM    Ar  670   0.645   2.925   0.955  0.0000  0.0000  0.0000
    11DUM    Ar  671   0.645   2.735   1.145  0.0000  0.0000  0.0000
    11DUM    Ar  672   0.455   2.925   1.145  0.0000  0.0000  0.0000
    11DUM    Ar  673   0.835   2.735   0.955  0.0000  0.0000  0.0000
    11DUM    Ar  674   1.025   2.925   0.955  0.0000  0.0000  0.0000
    11DUM    Ar  675   1.025   2.735   1.145  0.0000  0.0000  0.0000
    11DUM    Ar  676   0.835   2.925   1.145  0.0000  0.0000  0.0000
    11DUM    Ar  677   1.215   2.735   0.955  0.0000  0.0000  0.0000
    11DUM    Ar  678   1.405   2.925   0.955  0.0000  0.0000  0.0000
    11DUM    Ar  679   1.405   2.735   1.145  0.0000  0.0000  0.0000
    11DUM    Ar  680   1.215   2.925   1.145  0.0000  0.0000  0.0000
    11DUM    Ar  681   1.595   2.735   0.955  0.0000  0.0000  0.0000
    11DUM    Ar  682   1.785   2.925   0.955  0.0000  0.0000  0.0000
    11DUM    Ar  683   1.785   2.735   1.145  0.0000  0.0000  0.0000
    11DUM    Ar  684   1.595   2.925   1.145  0.0000  0.0000  0.0000
    11DUM    Ar  685   1.975   2.735   0.955  0.0000  0.0000  0.0000
    11DUM    Ar  686   2.165   2.925   0.955  0.0000  0.0000  0.0000
    11DUM    Ar  687   2.165   2.735   1.145  0.0000  0.0000  0.0000
    11DUM    Ar  688   1.975   2.925   1.145  0.0000  0.0000  0.0000
    11DUM    Ar  689   2.355   2.735   0.955  0.0000  0.0000  0.0000
    11DUM    Ar  690   2.545   2.925   0.955  0.0000  0.0000  0.0000
    11DUM    Ar  691   2.545   2.735   1.145  0.0000  0.0000  0.0000
    11DUM    Ar  692   2.355   2.925   1.145  0.0000  0.0000  0.0000
    11DUM    Ar  693   2.735   2.735   0.955  0.0000  0.0000  0.0000
    11DUM    Ar  694   2.925   2.925   0.955  0.0000  0.0000  0.0000
    11DUM    Ar  695   2.925   2.735   1.145  0.0000  0.0000  0.0000
    11DUM    Ar  696   2.735   2.925   1.145  0.0000  0.0000  0.0000
    11DUM    Ar  697   0.075   0.075   1.335  0.0000  0.0000  0.0000
    11DUM    Ar  698   0.265   0.265   1.335  0.0000  0.0000  0.0000
    11DUM    Ar  699   0.265   0.075   1.525  0.0000  0.0000  0.0000
    11DUM    Ar  700   0.075   0.265   1.525  0.0000  0.0000  0.0000
    11DUM    Ar  701   0.455   0.075   1.335  0.0000  0.0000  0.0000
    11DUM    Ar  702   0.645   0.265   1.335  0.0000  0.0000  0.0000
    11DUM    Ar  703   0.645   0.075   1.525  0.0000  0.0000  0.0000
    11DUM    Ar  704   0.455   0.265   1.525  0.0000  0.0000  0.0000
    11DUM    Ar  705   0.835   0.075   1.335  0.0000  0.0000  0.0000
    11DUM    Ar  706   1.025   0.265   1.335  0.0000  0.0000  0.0000
    11DUM    Ar  707   1.025   0.075   1.525  0.0000  0.0000  0.0000
    11DUM    Ar  708   0.835   0.265   1.525  0.0000  0.0000  0.0000
    11DUM    Ar  709   1.215   0.075   1.335  0.0000  0.0000  0.0000
    11DUM    Ar  710   1.405   0.265   1.335  0.0000  0.0000  0.0000
    11DUM    Ar  711   1.405   0.075   1.525  0.0000  0.0000  0.0000
    11DUM    Ar  712   1.215   0.265   1.525  0.0000  0.0000  0.0000
    11DUM    Ar  713   1.595   0.075   1.335  0.0000  0.0000  0.0000
    11DUM    Ar  714   1.785   0.265   1.335  0.0000  0.0000  0.0000
    11DUM    Ar  715   1.785   0.075   1.525  0.0000  0.0000  0.0000
    11DUM    Ar  716   1.595   0.265   1.525  0.0000  0.0000  0.0000
    11DUM    Ar  717   1.975   0.075   1.335  0.0000  0.0000  0.0000
    11DUM    Ar  718   2.165   0.265   1.335  0.0000  0.0000  0.0000
    11DUM    Ar  719   2.165   0.075   1.525  0.0000  0.0000  0.0000
    11DUM    Ar  720   1.975   0.265   1.525  0.0000  0.0000  0.0000
    11DUM    Ar  721   2.355   0.075   1.335  0.0000  0.0000  0.0000
    11DUM    Ar  722   2.545   0.265   1.335  0.0000  0.0000  0.0000
    11DUM    Ar  723   2.545   0.075   1.525  0.0000  0.0000  0.0000
    11DUM    Ar  724   2.355   0.265   1.525  0.0000  0.0000  0.0000
    11DUM    Ar  725   2.735   0.075   1.335  0.0000  0.0000  0.0000
    11DUM    Ar  726   2.925   0.265   1.335  0.0000  0.0000  0.0000
    11DUM    Ar  727   2.925   0.075   1.525  0.0000  0.0000  0.0000
    11DUM    Ar  728   2.735   0.265   1.525  0.0000  0.0000  0.0000
    11DUM    Ar  729   0.075   0.455   1.335  0.0000  0.0000  0.0000
    11DUM    Ar  730   0.265   0.645   1.335  0.0000  0.0000  0.0000
    11DUM    Ar  731   0.265   0.455   1.525  0.0000  0.0000  0.0000
    11DUM    Ar  732   0.075   0.645   1.525  0.0000  0.0000  0.0000
    11DUM    Ar  733   0.455   0.455   1.335  0.0000  0.0000  0.0000
    11DUM    Ar  734   0.645   0.645   1.335  0.0000  0.0000  0.0000
    11DUM    Ar  735   0.645   0.455   1.525  0.0000  0.0000  0.0000
    11DUM    Ar  736   0.455   0.645   1.525  0.0000  0.0000  0.0000
    11DUM    Ar  737   0.835   0.455   1.335  0.0000  0.0000  0.0000
    11DUM    Ar  738   1.025   0.645   1.335  0.0000  0.0000  0.0000
    11DUM    Ar  739   1.025   0.455   1.525  0.0000  0.0000  0.0000
    11DUM    Ar  740   0.835   0.645   1.525  0.0000  0.0000  0.0000
    11DUM    Ar  741   1.215   0.455   1.335  0.0000  0.0000  0.0000
    11DUM    Ar  742   1.405   0.645   1.335  0.0000  0.0000  0.0000
    11DUM    Ar  743   1.405   0.455   1.525  0.0000  0.0000  0.0000
    11DUM    Ar  744   1.215   0.645   1.525  0.0000  0.0000  0.0000
    11DUM    Ar  745   1.595   0.455   1.335  0.0000  0.0000  0.0000
    11DUM    Ar  746   1.785   0.645   1.335  0.0000  0.0000  0.0000
    11DUM    Ar  747   1.785   0.455   1.525  0.0000  0.0000  0.0000
    11DUM    Ar  748   1.595   0.645   1.525  0.0000  0.0000  0.0000
    11DUM    Ar  749   1.975   0.455   1.335  0.0000  0.0000  0.0000
    11DUM    Ar  750   2.165   0.645   1.335  0.0000  0.0000  0.0000
    11DUM    Ar  751   2.165   0.455   1.525  0.0000  0.0000  0.0000
    11DUM    Ar  752   1.975   0.645   1.525  0.0000  0.0000  0.0000
    11DUM    Ar  753   2.355   0.455   1.335  0.0000  0.0000  0.0000
    11DUM    Ar  754   2.545   0.645   1.335  0.0000  0.0000  0.0000
    11DUM    Ar  755   2.545   0.455   1.525  0.0000  0.0000  0.0000
    11DUM    Ar  756   2.355   0.645   1.525  0.0000  0.0000  0.0000
    11DUM    Ar  757   2.735   0.455   1.335  0.0000  0.0000  0.0000
    11DUM    Ar  758   2.925   0.645   1.335  0.0000  0.0000  0.0000
    11DUM    Ar  759   2.925   0.455   1.525  0.0000  0.0000  0.0000
    11DUM    Ar  760   2.735   0.645   1.525  0.0000  0.0000  0.0000
    11DUM    Ar  761   0.075   0.835   1.335  0.0000  0.0000  0.0000
    11DUM    Ar  762   0.265   1.025   1.335  0.0000  0.0000  0.0000
    11DUM    Ar  763   0.265   0.835   1.525  0.0000  0.0000  0.0000
    11DUM    Ar  764   0.075   1.025   1.525  0.0000  0.0000  0.0000
    11DUM    Ar  765   0.455   0.835   1.335  0.0000  0.0000  0.0000
    11DUM    Ar  766   0.645   1.025   1.335  0.0000  0.0000  0.0000
    11DUM    Ar  767   0.645   0.835   1.525  0.0000  0.0000  0.0000
    11DUM    Ar  768   0.455   1.025   1.525  0.0000  0.0000  0.0000
    11DUM    Ar  769   0.835   0.835   1.335  0.0000  0.0000  0.0000
    11DUM    Ar  770   1.025   1.025   1.335  0.0000  0.0000  0.0000
    11DUM    Ar  771   1.025   0.835   1.525  0.0000  0.0000  0.0000
    11DUM    Ar  772   0.835   1.025   1.525  0.0000  0.0000  0.0000
    11DUM    Ar  773   1.215   0.835   1.335  0.0000  0.0000  0.0000
    11DUM    Ar  774   1.405   0.835   1.525  0.0000  0.0000  0.0000
    11DUM    Ar  775   1.215   1.025   1.525  0.0000  0.0000  0.0000
    11DUM    Ar  776   1.595   0.835   1.335  0.0000  0.0000  0.0000
    11DUM    Ar  777   1.785   1.025   1.335  0.0000  0.0000  0.0000
    11DUM    Ar  778   1.785   0.835   1.525  0.0000  0.0000  0.0000
    11DUM    Ar  779   1.975   0.835   1.335  0.0000  0.0000  0.0000
    11DUM    Ar  780   2.165   1.025   1.335  0.0000  0.0000  0.0000
    11DUM    Ar  781   2.165   0.835   1.525  0.0000  0.0000  0.0000
    11DUM    Ar  782   1.975   1.025   1.525  0.0000  0.0000  0.0000
    11DUM    Ar  783   2.355   0.835   1.335  0.0000  0.0000  0.0000
    11DUM    Ar  784   2.545   1.025   1.335  0.0000  0.0000  0.0000
    11DUM    Ar  785   2.545   0.835   1.525  0.0000  0.0000  0.0000
    11DUM    Ar  786   2.355   1.025   1.525  0.0000  0.0000  0.0000
    11DUM    Ar  787   2.735   0.835   1.335  0.0000  0.0000  0.0000
    11DUM    Ar  788   2.925   1.025   1.335  0.0000  0.0000  0.0000
    11DUM    Ar  789   2.925   0.835   1.525  0.0000  0.0000  0.0000
    11DUM    Ar  790   2.735   1.025   1.525  0.0000  0.0000  0.0000
    11DUM    Ar  791   0.075   1.215   1.335  0.0000  0.0000  0.0000
    11DUM    Ar  792   0.265   1.405   1.335  0.0000  0.0000  0.0000
    11DUM    Ar  793   0.265   1.215   1.525  0.0000  0.0000  0.0000
    11DUM    Ar  794   0.075   1.405   1.525  0.0000  0.0000  0.0000
    11DUM    Ar  795   0.455   1.215   1.335  0.0000  0.0000  0.0000
    11DUM    Ar  796   0.645   1.405   1.335  0.0000  0.0000  0.0000
    11DUM    Ar  797   0.645   1.215   1.525  0.0000  0.0000  0.0000
    11DUM    Ar  798   0.455   1.405   1.525  0.0000  0.0000  0.0000
    11DUM    Ar  799   0.835   1.215   1.335  0.0000  0.0000  0.0000
    11DUM    Ar  800   1.025   1.215   1.525  0.0000  0.0000  0.0000
    11DUM    Ar  801   0.835   1.405   1.525  0.0000  0.0000  0.0000
    11DUM    Ar  802   1.975   1.215   1.335  0.0000  0.0000  0.0000
    11DUM    Ar  803   2.165   1.405   1.335  0.0000  0.0000  0.0000
    11DUM    Ar  804   2.165   1.215   1.525  0.0000  0.0000  0.0000
    11DUM    Ar  805   2.355   1.215   1.335  0.0000  0.0000  0.0000
    11DUM    Ar  806   2.545   1.405   1.335  0.0000  0.0000  0.0000
    11DUM    Ar  807   2.545   1.215   1.525  0.0000  0.0000  0.0000
    11DUM    Ar  808   2.355   1.405   1.525  0.0000  0.0000  0.0000
    11DUM    Ar  809   2.735   1.215   1.335  0.0000  0.0000  0.0000
    11DUM    Ar  810   2.925   1.405   1.335  0.0000  0.0000  0.0000
    11DUM    Ar  811   2.925   1.215   1.525  0.0000  0.0000  0.0000
    11DUM    Ar  812   2.735   1.405   1.525  0.0000  0.0000  0.0000
    11DUM    Ar  813   0.075   1.595   1.335  0.0000  0.0000  0.0000
    11DUM    Ar  814   0.265   1.785   1.335  0.0000  0.0000  0.0000
    11DUM    Ar  815   0.265   1.595   1.525  0.0000  0.0000  0.0000
    11DUM    Ar  816   0.075   1.785   1.525  0.0000  0.0000  0.0000
    11DUM    Ar  817   0.455   1.595   1.335  0.0000  0.0000  0.0000
    11DUM    Ar  818   0.645   1.785   1.335  0.0000  0.0000  0.0000
    11DUM    Ar  819   0.645   1.595   1.525  0.0000  0.0000  0.0000
    11DUM    Ar  820   0.455   1.785   1.525  0.0000  0.0000  0.0000
    11DUM    Ar  821   0.835   1.595   1.335  0.0000  0.0000  0.0000
    11DUM    Ar  822   1.025   1.785   1.335  0.0000  0.0000  0.0000
    11DUM    Ar  823   0.835   1.785   1.525  0.0000  0.0000  0.0000
    11DUM    Ar  824   2.165   1.785   1.335  0.0000  0.0000  0.0000
    11DUM    Ar  825   2.165   1.595   1.525  0.0000  0.0000  0.0000
    11DUM    Ar  826   1.975   1.785   1.525  0.0000  0.0000  0.0000
    11DUM    Ar  827   2.355   1.595   1.335  0.0000  0.0000  0.0000
    11DUM    Ar  828   2.545   1.785   1.335  0.0000  0.0000  0.0000
    11DUM    Ar  829   2.545   1.595   1.525  0.0000  0.0000  0.0000
    11DUM    Ar  830   2.355   1.785   1.525  0.0000  0.0000  0.0000
    11DUM    Ar  831   2.735   1.595   1.335  0.0000  0.0000  0.0000
    11DUM    Ar  832   2.925   1.785   1.335  0.0000  0.0000  0.0000
    11DUM    Ar  833   2.925   1.595   1.525  0.0000  0.0000  0.0000
    11DUM    Ar  834   2.735   1.785   1.525  0.0000  0.0000  0.0000
    11DUM    Ar  835   0.075   1.975   1.335  0.0000  0.0000  0.0000
    11DUM    Ar  836   0.265   2.165   1.335  0.0000  0.0000  0.0000
    11DUM    Ar  837   0.265   1.975   1.525  0.0000  0.0000  0.0000
    11DUM    Ar  838   0.075   2.165   1.525  0.0000  0.0000  0.0000
    11DUM    Ar  839   0.455   1.975   1.335  0.0000  0.0000  0.0000
    11DUM    Ar  840   0.645   2.165   1.335  0.0000  0.0000  0.0000
    11DUM    Ar  841   0.645   1.975   1.525  0.0000  0.0000  0.0000
    11DUM    Ar  842   0.455   2.165   1.525  0.0000  0.0000  0.0000
    11DUM    Ar  843   0.835   1.975   1.335  0.0000  0.0000  0.0000
    11DUM    Ar  844   1.025   2.165   1.335  0.0000  0.0000  0.0000
    11DUM    Ar  845   1.025   1.975   1.525  0.0000  0.0000  0.0000
    11DUM    Ar  846   0.835   2.165   1.525  0.0000  0.0000  0.0000
    11DUM    Ar  847   1.215   1.975   1.335  0.0000  0.0000  0.0000
    11DUM    Ar  848   1.405   2.165   1.335  0.0000  0.0000  0.0000
    11DUM    Ar  849   1.215   2.165   1.525  0.0000  0.0000  0.0000
    11DUM    Ar  850   1.785   2.165   1.335  0.0000  0.0000  0.0000
    11DUM    Ar  851   1.785   1.975   1.525  0.0000  0.0000  0.0000
    11DUM    Ar  852   1.595   2.165   1.525  0.0000  0.0000  0.0000
    11DUM    Ar  853   1.975   1.975   1.335  0.0000  0.0000  0.0000
    11DUM    Ar  854   2.165   2.165   1.335  0.0000  0.0000  0.0000
    11DUM    Ar  855   2.165   1.975   1.525  0.0000  0.0000  0.0000
    11DUM    Ar  856   1.975   2.165   1.525  0.0000  0.0000  0.0000
    11DUM    Ar  857   2.355   1.975   1.335  0.0000  0.0000  0.0000
    11DUM    Ar  858   2.545   2.165   1.335  0.0000  0.0000  0.0000
    11DUM    Ar  859   2.545   1.975   1.525  0.0000  0.0000  0.0000
    11DUM    Ar  860   2.355   2.165   1.525  0.0000  0.0000  0.0000
    11DUM    Ar  861   2.735   1.975   1.335  0.0000  0.0000  0.0000
    11DUM    Ar  862   2.925   2.165   1.335  0.0000  0.0000  0.0000
    11DUM    Ar  863   2.925   1.975   1.525  0.0000  0.0000  0.0000
    11DUM    Ar  864   2.735   2.165   1.525  0.0000  0.0000  0.0000
    11DUM    Ar  865   0.075   2.355   1.335  0.0000  0.0000  0.0000
    11DUM    Ar  866   0.265   2.545   1.335  0.0000  0.0000  0.0000
    11DUM    Ar  867   0.265   2.355   1.525  0.0000  0.0000  0.0000
    11DUM    Ar  868   0.075   2.545   1.525  0.0000  0.0000  0.0000
    11DUM    Ar  869   0.455   2.355   1.335  0.0000  0.0000  0.0000
    11DUM    Ar  870   0.645   2.545   1.335  0.0000  0.0000  0.0000
    11DUM    Ar  871   0.645   2.355   1.525  0.0000  0.0000  0.0000
    11DUM    Ar  872   0.455   2.545   1.525  0.0000  0.0000  0.0000
    11DUM    Ar  873   0.835   2.355   1.335  0.0000  0.0000  0.0000
    11DUM    Ar  874   1.025   2.545   1.335  0.0000  0.0000  0.0000
    11DUM    Ar  875   1.025   2.355   1.525  0.0000  0.0000  0.0000
    11DUM    Ar  876   0.835   2.545   1.525  0.0000  0.0000  0.0000
    11DUM    Ar  877   1.215   2.355   1.335  0.0000  0.0000  0.0000
    11DUM    Ar  878   1.405   2.545   1.335  0.0000  0.0000  0.0000
    11DUM    Ar  879   1.405   2.355   1.525  0.0000  0.0000  0.0000
    11DUM    Ar  880   1.215   2.545   1.525  0.0000  0.0000  0.0000
    11DUM    Ar  881   1.595   2.355   1.335  0.0000  0.0000  0.0000
    11DUM    Ar  882   1.785   2.545   1.335  0.0000  0.0000  0.0000
    11DUM    Ar  883   1.785   2.355   1.525  0.0000  0.0000  0.0000
    11DUM    Ar  884   1.595   2.545   1.525  0.0000  0.0000  0.0000
    11DUM    Ar  885   1.975   2.355   1.335  0.0000  0.0000  0.0000
    11DUM    Ar  886   2.165   2.545   1.335  0.0000  0.0000  0.0000
    11DUM    Ar  887   2.165   2.355   1.525  0.0000  0.0000  0.0000
    11DUM    Ar  888   1.975   2.545   1.525  0.0000  0.0000  0.0000
    11DUM    Ar  889   2.355   2.355   1.335  0.0000  0.0000  0.0000
    11DUM    Ar  890   2.545   2.545   1.335  0.0000  0.0000  0.0000
    11DUM    Ar  891   2.545   2.355   1.525  0.0000  0.0000  0.0000
    11DUM    Ar  892   2.355   2.545   1.525  0.0000  0.0000  0.0000
    11DUM    Ar  893   2.735   2.355   1.335  0.0000  0.0000  0.0000
    11DUM    Ar  894   2.925   2.545   1.335  0.0000  0.0000  0.0000
    11DUM    Ar  895   2.925   2.355   1.525  0.0000  0.0000  0.0000
    11DUM    Ar  896   2.735   2.545   1.525  0.0000  0.0000  0.0000
    11DUM    Ar  897   0.075   2.735   1.335  0.0000  0.0000  0.0000
    11DUM    Ar  898   0.265   2.925   1.335  0.0000  0.0000  0.0000
    11DUM    Ar  899   0.265   2.735   1.525  0.0000  0.0000  0.0000
    11DUM    Ar  900   0.075   2.925   1.525  0.0000  0.0000  0.0000
    11DUM    Ar  901   0.455   2.735   1.335  0.0000  0.0000  0.0000
    11DUM    Ar  902   0.645   2.925   1.335  0.0000  0.0000  0.0000
    11DUM    Ar  903   0.645   2.735   1.525  0.0000  0.0000  0.0000
    11DUM    Ar  904   0.455   2.925   1.525  0.0000  0.0000  0.0000
    11DUM    Ar  905   0.835   2.735   1.335  0.0000  0.0000  0.0000
    11DUM    Ar  906   1.025   2.925   1.335  0.0000  0.0000  0.0000
    11DUM    Ar  907   1.025   2.735   1.525  0.0000  0.0000  0.0000
    11DUM    Ar  908   0.835   2.925   1.525  0.0000  0.0000  0.0000
    11DUM    Ar  909   1.215   2.735   1.335  0.0000  0.0000  0.0000
    11DUM    Ar  910   1.405   2.925   1.335  0.0000  0.0000  0.0000
    11DUM    Ar  911   1.405   2.735   1.525  0.0000  0.0000  0.0000
    11DUM    Ar  912   1.215   2.925   1.525  0.0000  0.0000  0.0000
    11DUM    Ar  913   1.595   2.735   1.335  0.0000  0.0000  0.0000
    11DUM    Ar  914   1.785   2.925   1.335  0.0000  0.0000  0.0000
    11DUM    Ar  915   1.785   2.735   1.525  0.0000  0.0000  0.0000
    11DUM    Ar  916   1.595   2.925   1.525  0.0000  0.0000  0.0000
    11DUM    Ar  917   1.975   2.735   1.335  0.0000  0.0000  0.0000
    11DUM    Ar  918   2.165   2.925   1.335  0.0000  0.0000  0.0000
    11DUM    Ar  919   2.165   2.735   1.525  0.0000  0.0000  0.0000
    11DUM    Ar  920   1.975   2.925   1.525  0.0000  0.0000  0.0000
    11DUM    Ar  921   2.355   2.735   1.335  0.0000  0.0000  0.0000
    11DUM    Ar  922   2.545   2.925   1.335  0.0000  0.0000  0.0000
    11DUM    Ar  923   2.545   2.735   1.525  0.0000  0.0000  0.0000
    11DUM    Ar  924   2.355   2.925   1.525  0.0000  0.0000  0.0000
    11DUM    Ar  925   2.735   2.735   1.335  0.0000  0.0000  0.0000
    11DUM    Ar  926   2.925   2.925   1.335  0.0000  0.0000  0.0000
    11DUM    Ar  927   2.925   2.735   1.525  0.0000  0.0000  0.0000
    11DUM    Ar  928   2.735   2.925   1.525  0.0000  0.0000  0.0000
    11DUM    Ar  929   0.075   0.075   1.715  0.0000  0.0000  0.0000
    11DUM    Ar  930   0.265   0.265   1.715  0.0000  0.0000  0.0000
    11DUM    Ar  931   0.265   0.075   1.905  0.0000  0.0000  0.0000
    11DUM    Ar  932   0.075   0.265   1.905  0.0000  0.0000  0.0000
    11DUM    Ar  933   0.455   0.075   1.715  0.0000  0.0000  0.0000
    11DUM    Ar  934   0.645   0.265   1.715  0.0000  0.0000  0.0000
    11DUM    Ar  935   0.645   0.075   1.905  0.0000  0.0000  0.0000
    11DUM    Ar  936   0.455   0.265   1.905  0.0000  0.0000  0.0000
    11DUM    Ar  937   0.835   0.075   1.715  0.0000  0.0000  0.0000
    11DUM    Ar  938   1.025   0.265   1.715  0.0000  0.0000  0.0000
    11DUM    Ar  939   1.025   0.075   1.905  0.0000  0.0000  0.0000
    11DUM    Ar  940   0.835   0.265   1.905  0.0000  0.0000  0.0000
    11DUM    Ar  941   1.215   0.075   1.715  0.0000  0.0000  0.0000
    11DUM    Ar  942   1.405   0.265   1.715  0.0000  0.0000  0.0000
    11DUM    Ar  943   1.405   0.075   1.905  0.0000  0.0000  0.0000
    11DUM    Ar  944   1.215   0.265   1.905  0.0000  0.0000  0.0000
    11DUM    Ar  945   1.595   0.075   1.715  0.0000  0.0000  0.0000
    11DUM    Ar  946   1.785   0.265   1.715  0.0000  0.0000  0.0000
    11DUM    Ar  947   1.785   0.075   1.905  0.0000  0.0000  0.0000
    11DUM    Ar  948   1.595   0.265   1.905  0.0000  0.0000  0.0000
    11DUM    Ar  949   1.975   0.075   1.715  0.0000  0.0000  0.0000
    11DUM    Ar  950   2.165   0.265   1.715  0.0000  0.0000  0.0000
    11DUM    Ar  951   2.165   0.075   1.905  0.0000  0.0000  0.0000
    11DUM    Ar  952   1.975   0.265   1.905  0.0000  0.0000  0.0000
    11DUM    Ar  953   2.355   0.075   1.715  0.0000  0.0000  0.0000
    11DUM    Ar  954   2.545   0.265   1.715  0.0000  0.0000  0.0000
    11DUM    Ar  955   2.545   0.075   1.905  0.0000  0.0000  0.0000
    11DUM    Ar  956   2.355   0.265   1.905  0.0000  0.0000  0.0000
    11DUM    Ar  957   2.735   0.075   1.715  0.0000  0.0000  0.0000
    11DUM    Ar  958   2.925   0.265   1.715  0.0000  0.0000  0.0000
    11DUM    Ar  959   2.925   0.075   1.905  0.0000  0.0000  0.0000
    11DUM    Ar  960   2.735   0.265   1.905  0.0000  0.0000  0.0000
    11DUM    Ar  961   0.075   0.455   1.715  0.0000  0.0000  0.0000
    11DUM    Ar  962   0.265   0.645   1.715  0.0000  0.0000  0.0000
    11DUM    Ar  963   0.265   0.455   1.905  0.0000  0.0000  0.0000
    11DUM    Ar  964   0.075   0.645   1.905  0.0000  0.0000  0.0000
    11DUM    Ar  965   0.455   0.455   1.715  0.0000  0.0000  0.0000
    11DUM    Ar  966   0.645   0.645   1.715  0.0000  0.0000  0.0000
    11DUM    Ar  967   0.645   0.455   1.905  0.0000  0.0000  0.0000
    11DUM    Ar  968   0.455   0.645   1.905  0.0000  0.0000  0.0000
    11DUM    Ar  969   0.835   0.455   1.715  0.0000  0.0000  0.0000
    11DUM    Ar  970   1.025   0.645   1.715  0.0000  0.0000  0.0000
    11DUM    Ar  971   1.025   0.455   1.905  0.0000  0.0000  0.0000
    11DUM    Ar  972   0.835   0.645   1.905  0.0000  0.0000  0.0000
    11DUM    Ar  973   1.215   0.455   1.715  0.0000  0.0000  0.0000
    11DUM    Ar  974   1.405   0.645   1.715  0.0000  0.0000  0.0000
    11DUM    Ar  975   1.405   0.455   1.905  0.0000  0.0000  0.0000
    11DUM    Ar  976   1.215   0.645   1.905  0.0000  0.0000  0.0000
    11DUM    Ar  977   1.595   0.455   1.715  0.0000  0.0000  0.0000
    11DUM    Ar  978   1.785   0.645   1.715  0.0000  0.0000  0.0000
    11DUM    Ar  979   1.785   0.455   1.905  0.0000  0.0000  0.0000
    11DUM    Ar  980   1.595   0.645   1.905  0.0000  0.0000  0.0000
    11DUM    Ar  981   1.975   0.455   1.715  0.0000  0.0000  0.0000
    11DUM    Ar  982   2.165   0.645   1.715  0.0000  0.0000  0.0000
    11DUM    Ar  983   2.165   0.455   1.905  0.0000  0.0000  0.0000
    11DUM    Ar  984   1.975   0.645   1.905  0.0000  0.0000  0.0000
    11DUM    Ar  985   2.355   0.455   1.715  0.0000  0.0000  0.0000
    11DUM    Ar  986   2.545   0.645   1.715  0.0000  0.0000  0.0000
    11DUM    Ar  987   2.545   0.455   1.905  0.0000  0.0000  0.0000
    11DUM    Ar  988   2.355   0.645   1.905  0.0000  0.0000  0.0000
    11DUM    Ar  989   2.735   0.455   1.715  0.0000  0.0000  0.0000
    11DUM    Ar  990   2.925   0.645   1.715  0.0000  0.0000  0.0000
    11DUM    Ar  991   2.925   0.455   1.905  0.0000  0.0000  0.0000
    11DUM    Ar  992   2.735   0.645   1.905  0.0000  0.0000  0.0000
    11DUM    Ar  993   0.075   0.835   1.715  0.0000  0.0000  0.0000
    11DUM    Ar  994   0.265   1.025   1.715  0.0000  0.0000  0.0000
    11DUM    Ar  995   0.265   0.835   1.905  0.0000  0.0000  0.0000
    11DUM    Ar  996   0.075   1.025   1.905  0.0000  0.0000  0.0000
    11DUM    Ar  997   0.455   0.835   1.715  0.0000  0.0000  0.0000
    11DUM    Ar  998   0.645   1.025   1.715  0.0000  0.0000  0.0000
    11DUM    Ar  999   0.645   0.835   1.905  0.0000  0.0000  0.0000
    11DUM    Ar 1000   0.455   1.025   1.905  0.0000  0.0000  0.0000
    11DUM    Ar 1001   0.835   0.835   1.715  0.0000  0.0000  0.0000
    11DUM    Ar 1002   1.025   1.025   1.715  0.0000  0.0000  0.0000
    11DUM    Ar 1003   1.025   0.835   1.905  0.0000  0.0000  0.0000
    11DUM    Ar 1004   0.835   1.025   1.905  0.0000  0.0000  0.0000
    11DUM    Ar 1005   1.215   0.835   1.715  0.0000  0.0000  0.0000
    11DUM    Ar 1006   1.405   0.835   1.905  0.0000  0.0000  0.0000
    11DUM    Ar 1007   1.215   1.025   1.905  0.0000  0.0000  0.0000
    11DUM    Ar 1008   1.595   0.835   1.715  0.0000  0.0000  0.0000
    11DUM    Ar 1009   1.785   1.025   1.715  0.0000  0.0000  0.0000
    11DUM    Ar 1010   1.785   0.835   1.905  0.0000  0.0000  0.0000
    11DUM    Ar 1011   1.975   0.835   1.715  0.0000  0.0000  0.0000
    11DUM    Ar 1012   2.165   1.025   1.715  0.0000  0.0000  0.0000
    11DUM    Ar 1013   2.165   0.835   1.905  0.0000  0.0000  0.0000
    11DUM    Ar 1014   1.975   1.025   1.905  0.0000  0.0000  0.0000
    11DUM    Ar 1015   2.355   0.835   1.715  0.0000  0.0000  0.0000
    11DUM    Ar 1016   2.545   1.025   1.715  0.0000  0.0000  0.0000
    11DUM    Ar 1017   2.545   0.835   1.905  0.0000  0.0000  0.0000
    11DUM    Ar 1018   2.355   1.025   1.905  0.0000  0.0000  0.0000
    11DUM    Ar 1019   2.735   0.835   1.715  0.0000  0.0000  0.0000
    11DUM    Ar 1020   2.925   1.025   1.715  0.0000  0.0000  0.0000
    11DUM    Ar 1021   2.925   0.835   1.905  0.0000  0.0000  0.0000
    11DUM    Ar 1022   2.735   1.025   1.905  0.0000  0.0000  0.0000
    11DUM    Ar 1023   0.075   1.215   1.715  0.0000  0.0000  0.0000
    11DUM    Ar 1024   0.265   1.405   1.715  0.0000  0.0000  0.0000
    11DUM    Ar 1025   0.265   1.215   1.905  0.0000  0.0000  0.0000
    11DUM    Ar 1026   0.075   1.405   1.905  0.0000  0.0000  0.0000
    11DUM    Ar 1027   0.455   1.215   1.715  0.0000  0.0000  0.0000
    11DUM    Ar 1028   0.645   1.405   1.715  0.0000  0.0000  0.0000
    11DUM    Ar 1029   0.645   1.215   1.905  0.0000  0.0000  0.0000
    11DUM    Ar 1030   0.455   1.405   1.905  0.0000  0.0000  0.0000
    11DUM    Ar 1031   0.835   1.215   1.715  0.0000  0.0000  0.0000
    11DUM    Ar 1032   1.025   1.215   1.905  0.0000  0.0000  0.0000
    11DUM    Ar 1033   0.835   1.405   1.905  0.0000  0.0000  0.0000
    11DUM    Ar 1034   1.975   1.215   1.715  0.0000  0.0000  0.0000
    11DUM    Ar 1035   2.165   1.405   1.715  0.0000  0.0000  0.0000
    11DUM    Ar 1036   2.165   1.215   1.905  0.0000  0.0000  0.0000
    11DUM    Ar 1037   2.355   1.215   1.715  0.0000  0.0000  0.0000
    11DUM    Ar 1038   2.545   1.405   1.715  0.0000  0.0000  0.0000
    11DUM    Ar 1039   2.545   1.215   1.905  0.0000  0.0000  0.0000
    11DUM    Ar 1040   2.355   1.405   1.905  0.0000  0.0000  0.0000
    11DUM    Ar 1041   2.735   1.215   1.715  0.0000  0.0000  0.0000
    11DUM    Ar 1042   2.925   1.405   1.715  0.0000  0.0000  0.0000
    11DUM    Ar 1043   2.925   1.215   1.905  0.0000  0.0000  0.0000
    11DUM    Ar 1044   2.735   1.405   1.905  0.0000  0.0000  0.0000
    11DUM    Ar 1045   0.075   1.595   1.715  0.0000  0.0000  0.0000
    11DUM    Ar 1046   0.265   1.785   1.715  0.0000  0.0000  0.0000
    11DUM    Ar 1047   0.265   1.595   1.905  0.0000  0.0000  0.0000
    11DUM    Ar 1048   0.075   1.785   1.905  0.0000  0.0000  0.0000
    11DUM    Ar 1049   0.455   1.595   1.715  0.0000  0.0000  0.0000
    11DUM    Ar 1050   0.645   1.785   1.715  0.0000  0.0000  0.0000
    11DUM    Ar 1051   0.645   1.595   1.905  0.0000  0.0000  0.0000
    11DUM    Ar 1052   0.455   1.785   1.905  0.0000  0.0000  0.0000
    11DUM    Ar 1053   0.835   1.595   1.715  0.0000  0.0000  0.0000
    11DUM    Ar 1054   1.025   1.785   1.715  0.0000  0.0000  0.0000
    11DUM    Ar 1055   0.835   1.785   1.905  0.0000  0.0000  0.0000
    11DUM    Ar 1056   2.165   1.785   1.715  0.0000  0.0000  0.0000
    11DUM    Ar 1057   2.165   1.595   1.905  0.0000  0.0000  0.0000
    11DUM    Ar 1058   1.975   1.785   1.905  0.0000  0.0000  0.0000
    11DUM    Ar 1059   2.355   1.595   1.715  0.0000  0.0000  0.0000
    11DUM    Ar 1060   2.545   1.785   1.715  0.0000  0.0000  0.0000
    11DUM    Ar 1061   2.545   1.595   1.905  0.0000  0.0000  0.0000
    11DUM    Ar 1062   2.355   1.785   1.905  0.0000  0.0000  0.0000
    11DUM    Ar 1063   2.735   1.595   1.715  0.0000  0.0000  0.0000
    11DUM    Ar 1064   2.925   1.785   1.715  0.0000  0.0000  0.0000
    11DUM    Ar 1065   2.925   1.595   1.905  0.0000  0.0000  0.0000
    11DUM    Ar 1066   2.735   1.785   1.905  0.0000  0.0000  0.0000
    11DUM    Ar 1067   0.075   1.975   1.715  0.0000  0.0000  0.0000
    11DUM    Ar 1068   0.265   2.165   1.715  0.0000  0.0000  0.0000
    11DUM    Ar 1069   0.265   1.975   1.905  0.0000  0.0000  0.0000
    11DUM    Ar 1070   0.075   2.165   1.905  0.0000  0.0000  0.0000
    11DUM    Ar 1071   0.455   1.975   1.715  0.0000  0.0000  0.0000
    11DUM    Ar 1072   0.645   2.165   1.715  0.0000  0.0000  0.0000
    11DUM    Ar 1073   0.645   1.975   1.905  0.0000  0.0000  0.0000
    11DUM    Ar 1074   0.455   2.165   1.905  0.0000  0.0000  0.0000
    11DUM    Ar 1075   0.835   1.975   1.715  0.0000  0.0000  0.0000
    11DUM    Ar 1076   1.025   2.165   1.715  0.0000  0.0000  0.0000
    11DUM    Ar 1077   1.025   1.975   1.905  0.0000  0.0000  0.0000
    11DUM    Ar 1078   0.835   2.165   1.905  0.0000  0.0000  0.0000
    11DUM    Ar 1079   1.215   1.975   1.715  0.0000  0.0000  0.0000
    11DUM    Ar 1080   1.405   2.165   1.715  0.0000  0.0000  0.0000
    11DUM    Ar 1081   1.215   2.165   1.905  0.0000  0.0000  0.0000
    11DUM    Ar 1082   1.785   2.165   1.715  0.0000  0.0000  0.0000
    11DUM    Ar 1083   1.785   1.975   1.905  0.0000  0.0000  0.0000
    11DUM    Ar 1084   1.595   2.165   1.905  0.0000  0.0000  0.0000
    11DUM    Ar 1085   1.975   1.975   1.715  0.0000  0.0000  0.0000
    11DUM    Ar 1086   2.165   2.165   1.715  0.0000  0.0000  0.0000
    11DUM    Ar 1087   2.165   1.975   1.905  0.0000  0.0000  0.0000
    11DUM    Ar 1088   1.975   2.165   1.905  0.0000  0.0000  0.0000
    11DUM    Ar 1089   2.355   1.975   1.715  0.0000  0.0000  0.0000
    11DUM    Ar 1090   2.545   2.165   1.715  0.0000  0.0000  0.0000
    11DUM    Ar 1091   2.545   1.975   1.905  0.0000  0.0000  0.0000
    11DUM    Ar 1092   2.355   2.165   1.905  0.0000  0.0000  0.0000
    11DUM    Ar 1093   2.735   1.975   1.715  0.0000  0.0000  0.0000
    11DUM    Ar 1094   2.925   2.165   1.715  0.0000  0.0000  0.0000
    11DUM    Ar 1095   2.925   1.975   1.905  0.0000  0.0000  0.0000
    11DUM    Ar 1096   2.735   2.165   1.905  0.0000  0.0000  0.0000
    11DUM    Ar 1097   0.075   2.355   1.715  0.0000  0.0000  0.0000
    11DUM    Ar 1098   0.265   2.545   1.715  0.0000  0.0000  0.0000
    11DUM    Ar 1099   0.265   2.355   1.905  0.0000  0.0000  0.0000
    11DUM    Ar 1100   0.075   2.545   1.905  0.0000  0.0000  0.0000
    11DUM    Ar 1101   0.455   2.355   1.715  0.0000  0.0000  0.0000
    11DUM    Ar 1102   0.645   2.545   1.715  0.0000  0.0000  0.0000
    11DUM    Ar 1103   0.645   2.355   1.905  0.0000  0.0000  0.0000
    11DUM    Ar 1104   0.455   2.545   1.905  0.0000  0.0000  0.0000
    11DUM    Ar 1105   0.835   2.355   1.715  0.0000  0.0000  0.0000
    11DUM    Ar 1106   1.025   2.545   1.715  0.0000  0.0000  0.0000
    11DUM    Ar 1107   1.025   2.355   1.905  0.0000  0.0000  0.0000
    11DUM    Ar 1108   0.835   2.545   1.905  0.0000  0.0000  0.0000
    11DUM    Ar 1109   1.215   2.355   1.715  0.0000  0.0000  0.0000
    11DUM    Ar 1110   1.405   2.545   1.715  0.0000  0.0000  0.0000
    11DUM    Ar 1111   1.405   2.355   1.905  0.0000  0.0000  0.0000
    11DUM    Ar 1112   1.215   2.545   1.905  0.0000  0.0000  0.0000
    11DUM    Ar 1113   1.595   2.355   1.715  0.0000  0.0000  0.0000
    11DUM    Ar 1114   1.785   2.545   1.715  0.0000  0.0000  0.0000
    11DUM    Ar 1115   1.785   2.355   1.905  0.0000  0.0000  0.0000
    11DUM    Ar 1116   1.595   2.545   1.905  0.0000  0.0000  0.0000
    11DUM    Ar 1117   1.975   2.355   1.715  0.0000  0.0000  0.0000
    11DUM    Ar 1118   2.165   2.545   1.715  0.0000  0.0000  0.0000
    11DUM    Ar 1119   2.165   2.355   1.905  0.0000  0.0000  0.0000
    11DUM    Ar 1120   1.975   2.545   1.905  0.0000  0.0000  0.0000
    11DUM    Ar 1121   2.355   2.355   1.715  0.0000  0.0000  0.0000
    11DUM    Ar 1122   2.545   2.545   1.715  0.0000  0.0000  0.0000
    11DUM    Ar 1123   2.545   2.355   1.905  0.0000  0.0000  0.0000
    11DUM    Ar 1124   2.355   2.545   1.905  0.0000  0.0000  0.0000
    11DUM    Ar 1125   2.735   2.355   1.715  0.0000  0.0000  0.0000
    11DUM    Ar 1126   2.925   2.545   1.715  0.0000  0.0000  0.0000
    11DUM    Ar 1127   2.925   2.355   1.905  0.0000  0.0000  0.0000
    11DUM    Ar 1128   2.735   2.545   1.905  0.0000  0.0000  0.0000
    11DUM    Ar 1129   0.075   2.735   1.715  0.0000  0.0000  0.0000
    11DUM    Ar 1130   0.265   2.925   1.715  0.0000  0.0000  0.0000
    11DUM    Ar 1131   0.265   2.735   1.905  0.0000  0.0000  0.0000
    11DUM    Ar 1132   0.075   2.925   1.905  0.0000  0.0000  0.0000
    11DUM    Ar 1133   0.455   2.735   1.715  0.0000  0.0000  0.0000
    11DUM    Ar 1134   0.645   2.925   1.715  0.0000  0.0000  0.0000
    11DUM    Ar 1135   0.645   2.735   1.905  0.0000  0.0000  0.0000
    11DUM    Ar 1136   0.455   2.925   1.905  0.0000  0.0000  0.0000
    11DUM    Ar 1137   0.835   2.735   1.715  0.0000  0.0000  0.0000
    11DUM    Ar 1138   1.025   2.925   1.715  0.0000  0.0000  0.0000
    11DUM    Ar 1139   1.025   2.735   1.905  0.0000  0.0000  0.0000
    11DUM    Ar 1140   0.835   2.925   1.905  0.0000  0.0000  0.0000
    11DUM    Ar 1141   1.215   2.735   1.715  0.0000  0.0000  0.0000
    11DUM    Ar 1142   1.405   2.925   1.715  0.0000  0.0000  0.0000
    11DUM    Ar 1143   1.405   2.735   1.905  0.0000  0.0000  0.0000
    11DUM    Ar 1144   1.215   2.925   1.905  0.0000  0.0000  0.0000
    11DUM    Ar 1145   1.595   2.735   1.715  0.0000  0.0000  0.0000
    11DUM    Ar 1146   1.785   2.925   1.715  0.0000  0.0000  0.0000
    11DUM    Ar 1147   1.785   2.735   1.905  0.0000  0.0000  0.0000
    11DUM    Ar 1148   1.595   2.925   1.905  0.0000  0.0000  0.0000
    11DUM    Ar 1149   1.975   2.735   1.715  0.0000  0.0000  0.0000
    11DUM    Ar 1150   2.165   2.925   1.715  0.0000  0.0000  0.0000
    11DUM    Ar 1151   2.165   2.735   1.905  0.0000  0.0000  0.0000
    11DUM    Ar 1152   1.975   2.925   1.905  0.0000  0.0000  0.0000
    11DUM    Ar 1153   2.355   2.735   1.715  0.0000  0.0000  0.0000
    11DUM    Ar 1154   2.545   2.925   1.715  0.0000  0.0000  0.0000
    11DUM    Ar 1155   2.545   2.735   1.905  0.0000  0.0000  0.0000
    11DUM    Ar 1156   2.355   2.925   1.905  0.0000  0.0000  0.0000
    11DUM    Ar 1157   2.735   2.735   1.715  0.0000  0.0000  0.0000
    11DUM    Ar 1158   2.925   2.925   1.715  0.0000  0.0000  0.0000
    11DUM    Ar 1159   2.925   2.735   1.905  0.0000  0.0000  0.0000
    11DUM    Ar 1160   2.735   2.925   1.905  0.0000  0.0000  0.0000
    11DUM    Ar 1161   0.075   0.075   2.095  0.0000  0.0000  0.0000
    11DUM    Ar 1162   0.265   0.265   2.095  0.0000  0.0000  0.0000
    11DUM    Ar 1163   0.265   0.075   2.285  0.0000  0.0000  0.0000
    11DUM    Ar 1164   0.075   0.265   2.285  0.0000  0.0000  0.0000
    11DUM    Ar 1165   0.455   0.075   2.095  0.0000  0.0000  0.0000
    11DUM    Ar 1166   0.645   0.265   2.095  0.0000  0.0000  0.0000
    11DUM    Ar 1167   0.645   0.075   2.285  0.0000  0.0000  0.0000
    11DUM    Ar 1168   0.455   0.265   2.285  0.0000  0.0000  0.0000
    11DUM    Ar 1169   0.835   0.075   2.095  0.0000  0.0000  0.0000
    11DUM    Ar 1170   1.025   0.265   2.095  0.0000  0.0000  0.0000
    11DUM    Ar 1171   1.025   0.075   2.285  0.0000  0.0000  0.0000
    11DUM    Ar 1172   0.835   0.265   2.285  0.0000  0.0000  0.0000
    11DUM    Ar 1173   1.215   0.075   2.095  0.0000  0.0000  0.0000
    11DUM    Ar 1174   1.405   0.265   2.095  0.0000  0.0000  0.0000
    11DUM    Ar 1175   1.405   0.075   2.285  0.0000  0.0000  0.0000
    11DUM    Ar 1176   1.215   0.265   2.285  0.0000  0.0000  0.0000
    11DUM    Ar 1177   1.595   0.075   2.095  0.0000  0.0000  0.0000
    11DUM    Ar 1178   1.785   0.265   2.095  0.0000  0.0000  0.0000
    11DUM    Ar 1179   1.785   0.075   2.285  0.0000  0.0000  0.0000
    11DUM    Ar 1180   1.595   0.265   2.285  0.0000  0.0000  0.0000
    11DUM    Ar 1181   1.975   0.075   2.095  0.0000  0.0000  0.0000
    11DUM    Ar 1182   2.165   0.265   2.095  0.0000  0.0000  0.0000
    11DUM    Ar 1183   2.165   0.075   2.285  0.0000  0.0000  0.0000
    11DUM    Ar 1184   1.975   0.265   2.285  0.0000  0.0000  0.0000
    11DUM    Ar 1185   2.355   0.075   2.095  0.0000  0.0000  0.0000
    11DUM    Ar 1186   2.545   0.265   2.095  0.0000  0.0000  0.0000
    11DUM    Ar 1187   2.545   0.075   2.285  0.0000  0.0000  0.0000
    11DUM    Ar 1188   2.355   0.265   2.285  0.0000  0.0000  0.0000
    11DUM    Ar 1189   2.735   0.075   2.095  0.0000  0.0000  0.0000
    11DUM    Ar 1190   2.925   0.265   2.095  0.0000  0.0000  0.0000
    11DUM    Ar 1191   2.925   0.075   2.285  0.0000  0.0000  0.0000
    11DUM    Ar 1192   2.735   0.265   2.285  0.0000  0.0000  0.0000
    11DUM    Ar 1193   0.075   0.455   2.095  0.0000  0.0000  0.0000
    11DUM    Ar 1194   0.265   0.645   2.095  0.0000  0.0000  0.0000
    11DUM    Ar 1195   0.265   0.455   2.285  0.0000  0.0000  0.0000
    11DUM    Ar 1196   0.075   0.645   2.285  0.0000  0.0000  0.0000
    11DUM    Ar 1197   0.455   0.455   2.095  0.0000  0.0000  0.0000
    11DUM    Ar 1198   0.645   0.645   2.095  0.0000  0.0000  0.0000
    11DUM    Ar 1199   0.645   0.455   2.285  0.0000  0.0000  0.0000
    11DUM    Ar 1200   0.455   0.645   2.285  0.0000  0.0000  0.0000
    11DUM    Ar 1201   0.835   0.455   2.095  0.0000  0.0000  0.0000
    11DUM    Ar 1202   1.025   0.645   2.095  0.0000  0.0000  0.0000
    11DUM    Ar 1203   1.025   0.455   2.285  0.0000  0.0000  0.0000
    11DUM    Ar 1204   0.835   0.645   2.285  0.0000  0.0000  0.0000
    11DUM    Ar 1205   1.215   0.455   2.095  0.0000  0.0000  0.0000
    11DUM    Ar 1206   1.405   0.645   2.095  0.0000  0.0000  0.0000
    11DUM    Ar 1207   1.405   0.455   2.285  0.0000  0.0000  0.0000
    11DUM    Ar 1208   1.215   0.645   2.285  0.0000  0.0000  0.0000
    11DUM    Ar 1209   1.595   0.455   2.095  0.0000  0.0000  0.0000
    11DUM    Ar 1210   1.785   0.645   2.095  0.0000  0.0000  0.0000
    11DUM    Ar 1211   1.785   0.455   2.285  0.0000  0.0000  0.0000
    11DUM    Ar 1212   1.595   0.645   2.285  0.0000  0.0000  0.0000
    11DUM    Ar 1213   1.975   0.455   2.095  0.0000  0.0000  0.0000
    11DUM    Ar 1214   2.165   0.645   2.095  0.0000  0.0000  0.0000
    11DUM    Ar 1215   2.165   0.455   2.285  0.0000  0.0000  0.0000
    11DUM    Ar 1216   1.975   0.645   2.285  0.0000  0.0000  0.0000
    11DUM    Ar 1217   2.355   0.455   2.095  0.0000  0.0000  0.0000
    11DUM    Ar 1218   2.545   0.645   2.095  0.0000  0.0000  0.0000
    11DUM    Ar 1219   2.545   0.455   2.285  0.0000  0.0000  0.0000
    11DUM    Ar 1220   2.355   0.645   2.285  0.0000  0.0000  0.0000
    11DUM    Ar 1221   2.735   0.455   2.095  0.0000  0.0000  0.0000
    11DUM    Ar 1222   2.925   0.645   2.095  0.0000  0.0000  0.0000
    11DUM    Ar 1223   2.925   0.455   2.285  0.0000  0.0000  0.0000
    11DUM    Ar 1224   2.735   0.645   2.285  0.0000  0.0000  0.0000
    11DUM    Ar 1225   0.075   0.835   2.095  0.0000  0.0000  0.0000
    11DUM    Ar 1226   0.265   1.025   2.095  0.0000  0.0000  0.0000
    11DUM    Ar 1227   0.265   0.835   2.285  0.0000  0.0000  0.0000
    11DUM    Ar 1228   0.075   1.025   2.285  0.0000  0.0000  0.0000
    11DUM    Ar 1229   0.455   0.835   2.095  0.0000  0.0000  0.0000
    11DUM    Ar 1230   0.645   1.025   2.095  0.0000  0.0000  0.0000
    11DUM    Ar 1231   0.645   0.835   2.285  0.0000  0.0000  0.0000
    11DUM    Ar 1232   0.455   1.025   2.285  0.0000  0.0000  0.0000
    11DUM    Ar 1233   0.835   0.835   2.095  0.0000  0.0000  0.0000
    11DUM    Ar 1234   1.025   1.025   2.095  0.0000  0.0000  0.0000
    11DUM    Ar 1235   1.025   0.835   2.285  0.0000  0.0000  0.0000
    11DUM    Ar 1236   0.835   1.025   2.285  0.0000  0.0000  0.0000
    11DUM    Ar 1237   1.215   0.835   2.095  0.0000  0.0000  0.0000
    11DUM    Ar 1238   1.405   0.835   2.285  0.0000  0.0000  0.0000
    11DUM    Ar 1239   1.215   1.025   2.285  0.0000  0.0000  0.0000
    11DUM    Ar 1240   1.595   0.835   2.095  0.0000  0.0000  0.0000
    11DUM    Ar 1241   1.785   1.025   2.095  0.0000  0.0000  0.0000
    11DUM    Ar 1242   1.785   0.835   2.285  0.0000  0.0000  0.0000
    11DUM    Ar 1243   1.975   0.835   2.095  0.0000  0.0000  0.0000
    11DUM    Ar 1244   2.165   1.025   2.095  0.0000  0.0000  0.0000
    11DUM    Ar 1245   2.165   0.835   2.285  0.0000  0.0000  0.0000
    11DUM    Ar 1246   1.975   1.025   2.285  0.0000  0.0000  0.0000
    11DUM    Ar 1247   2.355   0.835   2.095  0.0000  0.0000  0.0000
    11DUM    Ar 1248   2.545   1.025   2.095  0.0000  0.0000  0.0000
    11DUM    Ar 1249   2.545   0.835   2.285  0.0000  0.0000  0.0000
    11DUM    Ar 1250   2.355   1.025   2.285  0.0000  0.0000  0.0000
    11DUM    Ar 1251   2.735   0.835   2.095  0.0000  0.0000  0.0000
    11DUM    Ar 1252   2.925   1.025   2.095  0.0000  0.0000  0.0000
    11DUM    Ar 1253   2.925   0.835   2.285  0.0000  0.0000  0.0000
    11DUM    Ar 1254   2.735   1.025   2.285  0.0000  0.0000  0.0000
    11DUM    Ar 1255   0.075   1.215   2.095  0.0000  0.0000  0.0000
    11DUM    Ar 1256   0.265   1.405   2.095  0.0000  0.0000  0.0000
    11DUM    Ar 1257   0.265   1.215   2.285  0.0000  0.0000  0.0000
    11DUM    Ar 1258   0.075   1.405   2.285  0.0000  0.0000  0.0000
    11DUM    Ar 1259   0.455   1.215   2.095  0.0000  0.0000  0.0000
    11DUM    Ar 1260   0.645   1.405   2.095  0.0000  0.0000  0.0000
    11DUM    Ar 1261   0.645   1.215   2.285  0.0000  0.0000  0.0000
    11DUM    Ar 1262   0.455   1.405   2.285  0.0000  0.0000  0.0000
    11DUM    Ar 1263   0.835   1.215   2.095  0.0000  0.0000  0.0000
    11DUM    Ar 1264   1.025   1.215   2.285  0.0000  0.0000  0.0000
    11DUM    Ar 1265   0.835   1.405   2.285  0.0000  0.0000  0.0000
    11DUM    Ar 1266   1.975   1.215   2.095  0.0000  0.0000  0.0000
    11DUM    Ar 1267   2.165   1.405   2.095  0.0000  0.0000  0.0000
    11DUM    Ar 1268   2.165   1.215   2.285  0.0000  0.0000  0.0000
    11DUM    Ar 1269   2.355   1.215   2.095  0.0000  0.0000  0.0000
    11DUM    Ar 1270   2.545   1.405   2.095  0.0000  0.0000  0.0000
    11DUM    Ar 1271   2.545   1.215   2.285  0.0000  0.0000  0.0000
    11DUM    Ar 1272   2.355   1.405   2.285  0.0000  0.0000  0.0000
    11DUM    Ar 1273   2.735   1.215   2.095  0.0000  0.0000  0.0000
    11DUM    Ar 1274   2.925   1.405   2.095  0.0000  0.0000  0.0000
    11DUM    Ar 1275   2.925   1.215   2.285  0.0000  0.0000  0.0000
    11DUM    Ar 1276   2.735   1.405   2.285  0.0000  0.0000  0.0000
    11DUM    Ar 1277   0.075   1.595   2.095  0.0000  0.0000  0.0000
    11DUM    Ar 1278   0.265   1.785   2.095  0.0000  0.0000  0.0000
    11DUM    Ar 1279   0.265   1.595   2.285  0.0000  0.0000  0.0000
    11DUM    Ar 1280   0.075   1.785   2.285  0.0000  0.0000  0.0000
    11DUM    Ar 1281   0.455   1.595   2.095  0.0000  0.0000  0.0000
    11DUM    Ar 1282   0.645   1.785   2.095  0.0000  0.0000  0.0000
    11DUM    Ar 1283   0.645   1.595   2.285  0.0000  0.0000  0.0000
    11DUM    Ar 1284   0.455   1.785   2.285  0.0000  0.0000  0.0000
    11DUM    Ar 1285   0.835   1.595   2.095  0.0000  0.0000  0.0000
    11DUM    Ar 1286   1.025   1.785   2.095  0.0000  0.0000  0.0000
    11DUM    Ar 1287   0.835   1.785   2.285  0.0000  0.0000  0.0000
    11DUM    Ar 1288   2.165   1.785   2.095  0.0000  0.0000  0.0000
    11DUM    Ar 1289   2.165   1.595   2.285  0.0000  0.0000  0.0000
    11DUM    Ar 1290   1.975   1.785   2.285  0.0000  0.0000  0.0000
    11DUM    Ar 1291   2.355   1.595   2.095  0.0000  0.0000  0.0000
    11DUM    Ar 1292   2.545   1.785   2.095  0.0000  0.0000  0.0000
    11DUM    Ar 1293   2.545   1.595   2.285  0.0000  0.0000  0.0000
    11DUM    Ar 1294   2.355   1.785   2.285  0.0000  0.0000  0.0000
    11DUM    Ar 1295   2.735   1.595   2.095  0.0000  0.0000  0.0000
    11DUM    Ar 1296   2.925   1.785   2.095  0.0000  0.0000  0.0000
    11DUM    Ar 1297   2.925   1.595   2.285  0.0000  0.0000  0.0000
    11DUM    Ar 1298   2.735   1.785   2.285  0.0000  0.0000  0.0000
    11DUM    Ar 1299   0.075   1.975   2.095  0.0000  0.0000  0.0000
    11DUM    Ar 1300   0.265   2.165   2.095  0.0000  0.0000  0.0000
    11DUM    Ar 1301   0.265   1.975   2.285  0.0000  0.0000  0.0000
    11DUM    Ar 1302   0.075   2.165   2.285  0.0000  0.0000  0.0000
    11DUM    Ar 1303   0.455   1.975   2.095  0.0000  0.0000  0.0000
    11DUM    Ar 1304   0.645   2.165   2.095  0.0000  0.0000  0.0000
    11DUM    Ar 1305   0.645   1.975   2.285  0.0000  0.0000  0.0000
    11DUM    Ar 1306   0.455   2.165   2.285  0.0000  0.0000  0.0000
    11DUM    Ar 1307   0.835   1.975   2.095  0.0000  0.0000  0.0000
    11DUM    Ar 1308   1.025   2.165   2.095  0.0000  0.0000  0.0000
    11DUM    Ar 1309   1.025   1.975   2.285  0.0000  0.0000  0.0000
    11DUM    Ar 1310   0.835   2.165   2.285  0.0000  0.0000  0.0000
    11DUM    Ar 1311   1.215   1.975   2.095  0.0000  0.0000  0.0000
    11DUM    Ar 1312   1.405   2.165   2.095  0.0000  0.0000  0.0000
    11DUM    Ar 1313   1.215   2.165   2.285  0.0000  0.0000  0.0000
    11DUM    Ar 1314   1.785   2.165   2.095  0.0000  0.0000  0.0000
    11DUM    Ar 1315   1.785   1.975   2.285  0.0000  0.0000  0.0000
    11DUM    Ar 1316   1.595   2.165   2.285  0.0000  0.0000  0.0000
    11DUM    Ar 1317   1.975   1.975   2.095  0.0000  0.0000  0.0000
    11DUM    Ar 1318   2.165   2.165   2.095  0.0000  0.0000  0.0000
    11DUM    Ar 1319   2.165   1.975   2.285  0.0000  0.0000  0.0000
    11DUM    Ar 1320   1.975   2.165   2.285  0.0000  0.0000  0.0000
    11DUM    Ar 1321   2.355   1.975   2.095  0.0000  0.0000  0.0000
    11DUM    Ar 1322   2.545   2.165   2.095  0.0000  0.0000  0.0000
    11DUM    Ar 1323   2.545   1.975   2.285  0.0000  0.0000  0.0000
    11DUM    Ar 1324   2.355   2.165   2.285  0.0000  0.0000  0.0000
    11DUM    Ar 1325   2.735   1.975   2.095  0.0000  0.0000  0.0000
    11DUM    Ar 1326   2.925   2.165   2.095  0.0000  0.0000  0.0000
    11DUM    Ar 1327   2.925   1.975   2.285  0.0000  0.0000  0.0000
    11DUM    Ar 1328   2.735   2.165   2.285  0.0000  0.0000  0.0000
    11DUM    Ar 1329   0.075   2.355   2.095  0.0000  0.0000  0.0000
    11DUM    Ar 1330   0.265   2.545   2.095  0.0000  0.0000  0.0000
    11DUM    Ar 1331   0.265   2.355   2.285  0.0000  0.0000  0.0000
    11DUM    Ar 1332   0.075   2.545   2.285  0.0000  0.0000  0.0000
    11DUM    Ar 1333   0.455   2.355   2.095  0.0000  0.0000  0.0000
    11DUM    Ar 1334   0.645   2.545   2.095  0.0000  0.0000  0.0000
    11DUM    Ar 1335   0.645   2.355   2.285  0.0000  0.0000  0.0000
    11DUM    Ar 1336   0.455   2.545   2.285  0.0000  0.0000  0.0000
    11DUM    Ar 1337   0.835   2.355   2.095  0.0000  0.0000  0.0000
    11DUM    Ar 1338   1.025   2.545   2.095  0.0000  0.0000  0.0000
    11DUM    Ar 1339   1.025   2.355   2.285  0.0000  0.0000  0.0000
    11DUM    Ar 1340   0.835   2.545   2.285  0.0000  0.0000  0.0000
    11DUM    Ar 1341   1.215   2.355   2.095  0.0000  0.0000  0.0000
    11DUM    Ar 1342   1.405   2.545   2.095  0.0000  0.0000  0.0000
    11DUM    Ar 1343   1.405   2.355   2.285  0.0000  0.0000  0.0000
    11DUM    Ar 1344   1.215   2.545   2.285  0.0000  0.0000  0.0000
    11DUM    Ar 1345   1.595   2.355   2.095  0.0000  0.0000  0.0000
    11DUM    Ar 1346   1.785   2.545   2.095  0.0000  0.0000  0.0000
    11DUM    Ar 1347   1.785   2.355   2.285  0.0000  0.0000  0.0000
    11DUM    Ar 1348   1.595   2.545   2.285  0.0000  0.0000  0.0000
    11DUM    Ar 1349   1.975   2.355   2.095  0.0000  0.0000  0.0000
    11DUM    Ar 1350   2.165   2.545   2.095  0.0000  0.0000  0.0000
    11DUM    Ar 1351   2.165   2.355   2.285  0.0000  0.0000  0.0000
    11DUM    Ar 1352   1.975   2.545   2.285  0.0000  0.0000  0.0000
    11DUM    Ar 1353   2.355   2.355   2.095  0.0000  0.0000  0.0000
    11DUM    Ar 1354   2.545   2.545   2.095  0.0000  0.0000  0.0000
    11DUM    Ar 1355   2.545   2.355   2.285  0.0000  0.0000  0.0000
    11DUM    Ar 1356   2.355   2.545   2.285  0.0000  0.0000  0.0000
    11DUM    Ar 1357   2.735   2.355   2.095  0.0000  0.0000  0.0000
    11DUM    Ar 1358   2.925   2.545   2.095  0.0000  0.0000  0.0000
    11DUM    Ar 1359   2.925   2.355   2.285  0.0000  0.0000  0.0000
    11DUM    Ar 1360   2.735   2.545   2.285  0.0000  0.0000  0.0000
    11DUM    Ar 1361   0.075   2.735   2.095  0.0000  0.0000  0.0000
    11DUM    Ar 1362   0.265   2.925   2.095  0.0000  0.0000  0.0000
    11DUM    Ar 1363   0.265   2.735   2.285  0.0000  0.0000  0.0000
    11DUM    Ar 1364   0.075   2.925   2.285  0.0000  0.0000  0.0000
    11DUM    Ar 1365   0.455   2.735   2.095  0.0000  0.0000  0.0000
    11DUM    Ar 1366   0.645   2.925   2.095  0.0000  0.0000  0.0000
    11DUM    Ar 1367   0.645   2.735   2.285  0.0000  0.0000  0.0000
    11DUM    Ar 1368   0.455   2.925   2.285  0.0000  0.0000  0.0000
    11DUM    Ar 1369   0.835   2.735   2.095  0.0000  0.0000  0.0000
    11DUM    Ar 1370   1.025   2.925   2.095  0.0000  0.0000  0.0000
    11DUM    Ar 1371   1.025   2.735   2.285  0.0000  0.0000  0.0000
    11DUM    Ar 1372   0.835   2.925   2.285  0.0000  0.0000  0.0000
    11DUM    Ar 1373   1.215   2.735   2.095  0.0000  0.0000  0.0000
    11DUM    Ar 1374   1.405   2.925   2.095  0.0000  0.0000  0.0000
    11DUM    Ar 1375   1.405   2.735   2.285  0.0000  0.0000  0.0000
    11DUM    Ar 1376   1.215   2.925   2.285  0.0000  0.0000  0.0000
    11DUM    Ar 1377   1.595   2.735   2.095  0.0000  0.0000  0.0000
    11DUM    Ar 1378   1.785   2.925   2.095  0.0000  0.0000  0.0000
    11DUM    Ar 1379   1.785   2.735   2.285  0.0000  0.0000  0.0000
    11DUM    Ar 1380   1.595   2.925   2.285  0.0000  0.0000  0.0000
    11DUM    Ar 1381   1.975   2.735   2.095  0.0000  0.0000  0.0000
    11DUM    Ar 1382   2.165   2.925   2.095  0.0000  0.0000  0.0000
    11DUM    Ar 1383   2.165   2.735   2.285  0.0000  0.0000  0.0000
    11DUM    Ar 1384   1.975   2.925   2.285  0.0000  0.0000  0.0000
    11DUM    Ar 1385   2.355   2.735   2.095  0.0000  0.0000  0.0000
    11DUM    Ar 1386   2.545   2.925   2.095  0.0000  0.0000  0.0000
    11DUM    Ar 1387   2.545   2.735   2.285  0.0000  0.0000  0.0000
    11DUM    Ar 1388   2.355   2.925   2.285  0.0000  0.0000  0.0000
    11DUM    Ar 1389   2.735   2.735   2.095  0.0000  0.0000  0.0000
    11DUM    Ar 1390   2.925   2.925   2.095  0.0000  0.0000  0.0000
    11DUM    Ar 1391   2.925   2.735   2.285  0.0000  0.0000  0.0000
    11DUM    Ar 1392   2.735   2.925   2.285  0.0000  0.0000  0.0000
    11DUM    Ar 1393   0.075   0.075   2.475  0.0000  0.0000  0.0000
    11DUM    Ar 1394   0.265   0.265   2.475  0.0000  0.0000  0.0000
    11DUM    Ar 1395   0.265   0.075   2.665  0.0000  0.0000  0.0000
    11DUM    Ar 1396   0.075   0.265   2.665  0.0000  0.0000  0.0000
    11DUM    Ar 1397   0.455   0.075   2.475  0.0000  0.0000  0.0000
    11DUM    Ar 1398   0.645   0.265   2.475  0.0000  0.0000  0.0000
    11DUM    Ar 1399   0.645   0.075   2.665  0.0000  0.0000  0.0000
    11DUM    Ar 1400   0.455   0.265   2.665  0.0000  0.0000  0.0000
    11DUM    Ar 1401   0.835   0.075   2.475  0.0000  0.0000  0.0000
    11DUM    Ar 1402   1.025   0.265   2.475  0.0000  0.0000  0.0000
    11DUM    Ar 1403   1.025   0.075   2.665  0.0000  0.0000  0.0000
    11DUM    Ar 1404   0.835   0.265   2.665  0.0000  0.0000  0.0000
    11DUM    Ar 1405   1.215   0.075   2.475  0.0000  0.0000  0.0000
    11DUM    Ar 1406   1.405   0.265   2.475  0.0000  0.0000  0.0000
    11DUM    Ar 1407   1.405   0.075   2.665  0.0000  0.0000  0.0000
    11DUM    Ar 1408   1.215   0.265   2.665  0.0000  0.0000  0.0000
    11DUM    Ar 1409   1.595   0.075   2.475  0.0000  0.0000  0.0000
    11DUM    Ar 1410   1.785   0.265   2.475  0.0000  0.0000  0.0000
    11DUM    Ar 1411   1.785   0.075   2.665  0.0000  0.0000  0.0000
    11DUM    Ar 1412   1.595   0.265   2.665  0.0000  0.0000  0.0000
    11DUM    Ar 1413   1.975   0.075   2.475  0.0000  0.0000  0.0000
    11DUM    Ar 1414   2.165   0.265   2.475  0.0000  0.0000  0.0000
    11DUM    Ar 1415   2.165   0.075   2.665  0.0000  0.0000  0.0000
    11DUM    Ar 1416   1.975   0.265   2.665  0.0000  0.0000  0.0000
    11DUM    Ar 1417   2.355   0.075   2.475  0.0000  0.0000  0.0000
    11DUM    Ar 1418   2.545   0.265   2.475  0.0000  0.0000  0.0000
    11DUM    Ar 1419   2.545   0.075   2.665  0.0000  0.0000  0.0000
    11DUM    Ar 1420   2.355   0.265   2.665  0.0000  0.0000  0.0000
    11DUM    Ar 1421   2.735   0.075   2.475  0.0000  0.0000  0.0000
    11DUM    Ar 1422   2.925   0.265   2.475  0.0000  0.0000  0.0000
    11DUM    Ar 1423   2.925   0.075   2.665  0.0000  0.0000  0.0000
    11DUM    Ar 1424   2.735   0.265   2.665  0.0000  0.0000  0.0000
    11DUM    Ar 1425   0.075   0.455   2.475  0.0000  0.0000  0.0000
    11DUM    Ar 1426   0.265   0.645   2.475  0.0000  0.0000  0.0000
    11DUM    Ar 1427   0.265   0.455   2.665  0.0000  0.0000  0.0000
    11DUM    Ar 1428   0.075   0.645   2.665  0.0000  0.0000  0.0000
    11DUM    Ar 1429   0.455   0.455   2.475  0.0000  0.0000  0.0000
    11DUM    Ar 1430   0.645   0.645   2.475  0.0000  0.0000  0.0000
    11DUM    Ar 1431   0.645   0.455   2.665  0.0000  0.0000  0.0000
    11DUM    Ar 1432   0.455   0.645   2.665  0.0000  0.0000  0.0000
    11DUM    Ar 1433   0.835   0.455   2.475  0.0000  0.0000  0.0000
    11DUM    Ar 1434   1.025   0.645   2.475  0.0000  0.0000  0.0000
    11DUM    Ar 1435   1.025   0.455   2.665  0.0000  0.0000  0.0000
    11DUM    Ar 1436   0.835   0.645   2.665  0.0000  0.0000  0.0000
    11DUM    Ar 1437   1.215   0.455   2.475  0.0000  0.0000  0.0000
    11DUM    Ar 1438   1.405   0.645   2.475  0.0000  0.0000  0.0000
    11DUM    Ar 1439   1.405   0.455   2.665  0.0000  0.0000  0.0000
    11DUM    Ar 1440   1.215   0.645   2.665  0.0000  0.0000  0.0000
    11DUM    Ar 1441   1.595   0.455   2.475  0.0000  0.0000  0.0000
    11DUM    Ar 1442   1.785   0.645   2.475  0.0000  0.0000  0.0000
    11DUM    Ar 1443   1.785   0.455   2.665  0.0000  0.0000  0.0000
    11DUM    Ar 1444   1.595   0.645   2.665  0.0000  0.0000  0.0000
    11DUM    Ar 1445   1.975   0.455   2.475  0.0000  0.0000  0.0000
    11DUM    Ar 1446   2.165   0.645   2.475  0.0000  0.0000  0.0000
    11DUM    Ar 1447   2.165   0.455   2.665  0.0000  0.0000  0.0000
    11DUM    Ar 1448   1.975   0.645   2.665  0.0000  0.0000  0.0000
    11DUM    Ar 1449   2.355   0.455   2.475  0.0000  0.0000  0.0000
    11DUM    Ar 1450   2.545   0.645   2.475  0.0000  0.0000  0.0000
    11DUM    Ar 1451   2.545   0.455   2.665  0.0000  0.0000  0.0000
    11DUM    Ar 1452   2.355   0.645   2.665  0.0000  0.0000  0.0000
    11DUM    Ar 1453   2.735   0.455   2.475  0.0000  0.0000  0.0000
    11DUM    Ar 1454   2.925   0.645   2.475  0.0000  0.0000  0.0000
    11DUM    Ar 1455   2.925   0.455   2.665  0.0000  0.0000  0.0000
    11DUM    Ar 1456   2.735   0.645   2.665  0.0000  0.0000  0.0000
    11DUM    Ar 1457   0.075   0.835   2.475  0.0000  0.0000  0.0000
    11DUM    Ar 1458   0.265   1.025   2.475  0.0000  0.0000  0.0000
    11DUM    Ar 1459   0.265   0.835   2.665  0.0000  0.0000  0.0000
    11DUM    Ar 1460   0.075   1.025   2.665  0.0000  0.0000  0.0000
    11DUM    Ar 1461   0.455   0.835   2.475  0.0000  0.0000  0.0000
    11DUM    Ar 1462   0.645   1.025   2.475  0.0000  0.0000  0.0000
    11DUM    Ar 1463   0.645   0.835   2.665  0.0000  0.0000  0.0000
    11DUM    Ar 1464   0.455   1.025   2.665  0.0000  0.0000  0.0000
    11DUM    Ar 1465   0.835   0.835   2.475  0.0000  0.0000  0.0000
    11DUM    Ar 1466   1.025   1.025   2.475  0.0000  0.0000  0.0000
    11DUM    Ar 1467   1.025   0.835   2.665  0.0000  0.0000  0.0000
    11DUM    Ar 1468   0.835   1.025   2.665  0.0000  0.0000  0.0000
    11DUM    Ar 1469   1.215   0.835   2.475  0.0000  0.0000  0.0000
    11DUM    Ar 1470   1.405   0.835   2.665  0.0000  0.0000  0.0000
    11DUM    Ar 1471   1.215   1.025   2.665  0.0000  0.0000  0.0000
    11DUM    Ar 1472   1.595   0.835   2.475  0.0000  0.0000  0.0000
    11DUM    Ar 1473   1.785   1.025   2.475  0.0000  0.0000  0.0000
    11DUM    Ar 1474   1.785   0.835   2.665  0.0000  0.0000  0.0000
    11DUM    Ar 1475   1.975   0.835   2.475  0.0000  0.0000  0.0000
    11DUM    Ar 1476   2.165   1.025   2.475  0.0000  0.0000  0.0000
    11DUM    Ar 1477   2.165   0.835   2.665  0.0000  0.0000  0.0000
    11DUM    Ar 1478   1.975   1.025   2.665  0.0000  0.0000  0.0000
    11DUM    Ar 1479   2.355   0.835   2.475  0.0000  0.0000  0.0000
    11DUM    Ar 1480   2.545   1.025   2.475  0.0000  0.0000  0.0000
    11DUM    Ar 1481   2.545   0.835   2.665  0.0000  0.0000  0.0000
    11DUM    Ar 1482   2.355   1.025   2.665  0.0000  0.0000  0.0000
    11DUM    Ar 1483   2.735   0.835   2.475  0.0000  0.0000  0.0000
    11DUM    Ar 1484   2.925   1.025   2.475  0.0000  0.0000  0.0000
    11DUM    Ar 1485   2.925   0.835   2.665  0.0000  0.0000  0.0000
    11DUM    Ar 1486   2.735   1.025   2.665  0.0000  0.0000  0.0000
    11DUM    Ar 1487   0.075   1.215   2.475  0.0000  0.0000  0.0000
    11DUM    Ar 1488   0.265   1.405   2.475  0.0000  0.0000  0.0000
    11DUM    Ar 1489   0.265   1.215   2.665  0.0000  0.0000  0.0000
    11DUM    Ar 1490   0.075   1.405   2.665  0.0000  0.0000  0.0000
    11DUM    Ar 1491   0.455   1.215   2.475  0.0000  0.0000  0.0000
    11DUM    Ar 1492   0.645   1.405   2.475  0.0000  0.0000  0.0000
    11DUM    Ar 1493   0.645   1.215   2.665  0.0000  0.0000  0.0000
    11DUM    Ar 1494   0.455   1.405   2.665  0.0000  0.0000  0.0000
    11DUM    Ar 1495   0.835   1.215   2.475  0.0000  0.0000  0.0000
    11DUM    Ar 1496   1.025   1.215   2.665  0.0000  0.0000  0.0000
    11DUM    Ar 1497   0.835   1.405   2.665  0.0000  0.0000  0.0000
    11DUM    Ar 1498   1.975   1.215   2.475  0.0000  0.0000  0.0000
    11DUM    Ar 1499   2.165   1.405   2.475  0.0000  0.0000  0.0000
    11DUM    Ar 1500   2.165   1.215   2.665  0.0000  0.0000  0.0000
    11DUM    Ar 1501   2.355   1.215   2.475  0.0000  0.0000  0.0000
    11DUM    Ar 1502   2.545   1.405   2.475  0.0000  0.0000  0.0000
    11DUM    Ar 1503   2.545   1.215   2.665  0.0000  0.0000  0.0000
    11DUM    Ar 1504   2.355   1.405   2.665  0.0000  0.0000  0.0000
    11DUM    Ar 1505   2.735   1.215   2.475  0.0000  0.0000  0.0000
    11DUM    Ar 1506   2.925   1.405   2.475  0.0000  0.0000  0.0000
    11DUM    Ar 1507   2.925   1.215   2.665  0.0000  0.0000  0.0000
    11DUM    Ar 1508   2.735   1.405   2.665  0.0000  0.0000  0.0000
    11DUM    Ar 1509   0.075   1.595   2.475  0.0000  0.0000  0.0000
    11DUM    Ar 1510   0.265   1.785   2.475  0.0000  0.0000  0.0000
    11DUM    Ar 1511   0.265   1.595   2.665  0.0000  0.0000  0.0000
    11DUM    Ar 1512   0.075   1.785   2.665  0.0000  0.0000  0.0000
    11DUM    Ar 1513   0.455   1.595   2.475  0.0000  0.0000  0.0000
    11DUM    Ar 1514   0.645   1.785   2.475  0.0000  0.0000  0.0000
    11DUM    Ar 1515   0.645   1.595   2.665  0.0000  0.0000  0.0000
    11DUM    Ar 1516   0.455   1.785   2.665  0.0000  0.0000  0.0000
    11DUM    Ar 1517   0.835   1.595   2.475  0.0000  0.0000  0.0000
    11DUM    Ar 1518   1.025   1.785   2.475  0.0000  0.0000  0.0000
    11DUM    Ar 1519   0.835   1.785   2.665  0.0000  0.0000  0.0000
    11DUM    Ar 1520   2.165   1.785   2.475  0.0000  0.0000  0.0000
    11DUM    Ar 1521   2.165   1.595   2.665  0.0000  0.0000  0.0000
    11DUM    Ar 1522   1.975   1.785   2.665  0.0000  0.0000  0.0000
    11DUM    Ar 1523   2.355   1.595   2.475  0.0000  0.0000  0.0000
    11DUM    Ar 1524   2.545   1.785   2.475  0.0000  0.0000  0.0000
    11DUM    Ar 1525   2.545   1.595   2.665  0.0000  0.0000  0.0000
    11DUM    Ar 1526   2.355   1.785   2.665  0.0000  0.0000  0.0000
    11DUM    Ar 1527   2.735   1.595   2.475  0.0000  0.0000  0.0000
    11DUM    Ar 1528   2.925   1.785   2.475  0.0000  0.0000  0.0000
    11DUM    Ar 1529   2.925   1.595   2.665  0.0000  0.0000  0.0000
    11DUM    Ar 1530   2.735   1.785   2.665  0.0000  0.0000  0.0000
    11DUM    Ar 1531   0.075   1.975   2.475  0.0000  0.0000  0.0000
    11DUM    Ar 1532   0.265   2.165   2.475  0.0000  0.0000  0.0000
    11DUM    Ar 1533   0.265   1.975   2.665  0.0000  0.0000  0.0000
    11DUM    Ar 1534   0.075   2.165   2.665  0.0000  0.0000  0.0000
    11DUM    Ar 1535   0.455   1.975   2.475  0.0000  0.0000  0.0000
    11DUM    Ar 1536   0.645   2.165   2.475  0.0000  0.0000  0.0000
    11DUM    Ar 1537   0.645   1.975   2.665  0.0000  0.0000  0.0000
    11DUM    Ar 1538   0.455   2.165   2.665  0.0000  0.0000  0.0000
    11DUM    Ar 1539   0.835   1.975   2.475  0.0000  0.0000  0.0000
    11DUM    Ar 1540   1.025   2.165   2.475  0.0000  0.0000  0.0000
    11DUM    Ar 1541   1.025   1.975   2.665  0.0000  0.0000  0.0000
    11DUM    Ar 1542   0.835   2.165   2.665  0.0000  0.0000  0.0000
    11DUM    Ar 1543   1.215   1.975   2.475  0.0000  0.0000  0.0000
    11DUM    Ar 1544   1.405   2.165   2.475  0.0000  0.0000  0.0000
    11DUM    Ar 1545   1.215   2.165   2.665  0.0000  0.0000  0.0000
    11DUM    Ar 1546   1.785   2.165   2.475  0.0000  0.0000  0.0000
    11DUM    Ar 1547   1.785   1.975   2.665  0.0000  0.0000  0.0000
    11DUM    Ar 1548   1.595   2.165   2.665  0.0000  0.0000  0.0000
    11DUM    Ar 1549   1.975   1.975   2.475  0.0000  0.0000  0.0000
    11DUM    Ar 1550   2.165   2.165   2.475  0.0000  0.0000  0.0000
    11DUM    Ar 1551   2.165   1.975   2.665  0.0000  0.0000  0.0000
    11DUM    Ar 1552   1.975   2.165   2.665  0.0000  0.0000  0.0000
    11DUM    Ar 1553   2.355   1.975   2.475  0.0000  0.0000  0.0000
    11DUM    Ar 1554   2.545   2.165   2.475  0.0000  0.0000  0.0000
    11DUM    Ar 1555   2.545   1.975   2.665  0.0000  0.0000  0.0000
    11DUM    Ar 1556   2.355   2.165   2.665  0.0000  0.0000  0.0000
    11DUM    Ar 1557   2.735   1.975   2.475  0.0000  0.0000  0.0000
    11DUM    Ar 1558   2.925   2.165   2.475  0.0000  0.0000  0.0000
    11DUM    Ar 1559   2.925   1.975   2.665  0.0000  0.0000  0.0000
    11DUM    Ar 1560   2.735   2.165   2.665  0.0000  0.0000  0.0000
    11DUM    Ar 1561   0.075   2.355   2.475  0.0000  0.0000  0.0000
    11DUM    Ar 1562   0.265   2.545   2.475  0.0000  0.0000  0.0000
    11DUM    Ar 1563   0.265   2.355   2.665  0.0000  0.0000  0.0000
    11DUM    Ar 1564   0.075   2.545   2.665  0.0000  0.0000  0.0000
    11DUM    Ar 1565   0.455   2.355   2.475  0.0000  0.0000  0.0000
    11DUM    Ar 1566   0.645   2.545   2.475  0.0000  0.0000  0.0000
    11DUM    Ar 1567   0.645   2.355   2.665  0.0000  0.0000  0.0000
    11DUM    Ar 1568   0.455   2.545   2.665  0.0000  0.0000  0.0000
    11DUM    Ar 1569   0.835   2.355   2.475  0.0000  0.0000  0.0000
    11DUM    Ar 1570   1.025   2.545   2.475  0.0000  0.0000  0.0000
    11DUM    Ar 1571   1.025   2.355   2.665  0.0000  0.0000  0.0000
    11DUM    Ar 1572   0.835   2.545   2.665  0.0000  0.0000  0.0000
    11DUM    Ar 1573   1.215   2.355   2.475  0.0000  0.0000  0.0000
    11DUM    Ar 1574   1.405   2.545   2.475  0.0000  0.0000  0.0000
    11DUM    Ar 1575   1.405   2.355   2.665  0.0000  0.0000  0.0000
    11DUM    Ar 1576   1.215   2.545   2.665  0.0000  0.0000  0.0000
    11DUM    Ar 1577   1.595   2.355   2.475  0.0000  0.0000  0.0000
    11DUM    Ar 1578   1.785   2.545   2.475  0.0000  0.0000  0.0000
    11DUM    Ar 1579   1.785   2.355   2.665  0.0000  0.0000  0.0000
    11DUM    Ar 1580   1.595   2.545   2.665  0.0000  0.0000  0.0000
    11DUM    Ar 1581   1.975   2.355   2.475  0.0000  0.0000  0.0000
    11DUM    Ar 1582   2.165   2.545   2.475  0.0000  0.0000  0.0000
    11DUM    Ar 1583   2.165   2.355   2.665  0.0000  0.0000  0.0000
    11DUM    Ar 1584   1.975   2.545   2.665  0.0000  0.0000  0.0000
    11DUM    Ar 1585   2.355   2.355   2.475  0.0000  0.0000  0.0000
    11DUM    Ar 1586   2.545   2.545   2.475  0.0000  0.0000  0.0000
    11DUM    Ar 1587   2.545   2.355   2.665  0.0000  0.0000  0.0000
    11DUM    Ar 1588   2.355   2.545   2.665  0.0000  0.0000  0.0000
    11DUM    Ar 1589   2.735   2.355   2.475  0.0000  0.0000  0.0000
    11DUM    Ar 1590   2.925   2.545   2.475  0.0000  0.0000  0.0000
    11DUM    Ar 1591   2.925   2.355   2.665  0.0000  0.0000  0.0000
    11DUM    Ar 1592   2.735   2.545   2.665  0.0000  0.0000  0.0000
    11DUM    Ar 1593   0.075   2.735   2.475  0.0000  0.0000  0.0000
    11DUM    Ar 1594   0.265   2.925   2.475  0.0000  0.0000  0.0000
    11DUM    Ar 1595   0.265   2.735   2.665  0.0000  0.0000  0.0000
    11DUM    Ar 1596   0.075   2.925   2.665  0.0000  0.0000  0.0000
    11DUM    Ar 1597   0.455   2.735   2.475  0.0000  0.0000  0.0000
    11DUM    Ar 1598   0.645   2.925   2.475  0.0000  0.0000  0.0000
    11DUM    Ar 1599   0.645   2.735   2.665  0.0000  0.0000  0.0000
    11DUM    Ar 1600   0.455   2.925   2.665  0.0000  0.0000  0.0000
    11DUM    Ar 1601   0.835   2.735   2.475  0.0000  0.0000  0.0000
    11DUM    Ar 1602   1.025   2.925   2.475  0.0000  0.0000  0.0000
    11DUM    Ar 1603   1.025   2.735   2.665  0.0000  0.0000  0.0000
    11DUM    Ar 1604   0.835   2.925   2.665  0.0000  0.0000  0.0000
    11DUM    Ar 1605   1.215   2.735   2.475  0.0000  0.0000  0.0000
    11DUM    Ar 1606   1.405   2.925   2.475  0.0000  0.0000  0.0000
    11DUM    Ar 1607   1.405   2.735   2.665  0.0000  0.0000  0.0000
    11DUM    Ar 1608   1.215   2.925   2.665  0.0000  0.0000  0.0000
    11DUM    Ar 1609   1.595   2.735   2.475  0.0000  0.0000  0.0000
    11DUM    Ar 1610   1.785   2.925   2.475  0.0000  0.0000  0.0000
    11DUM    Ar 1611   1.785   2.735   2.665  0.0000  0.0000  0.0000
    11DUM    Ar 1612   1.595   2.925   2.665  0.0000  0.0000  0.0000
    11DUM    Ar 1613   1.975   2.735   2.475  0.0000  0.0000  0.0000
    11DUM    Ar 1614   2.165   2.925   2.475  0.0000  0.0000  0.0000
    11DUM    Ar 1615   2.165   2.735   2.665  0.0000  0.0000  0.0000
    11DUM    Ar 1616   1.975   2.925   2.665  0.0000  0.0000  0.0000
    11DUM    Ar 1617   2.355   2.735   2.475  0.0000  0.0000  0.0000
    11DUM    Ar 1618   2.545   2.925   2.475  0.0000  0.0000  0.0000
    11DUM    Ar 1619   2.545   2.735   2.665  0.0000  0.0000  0.0000
    11DUM    Ar 1620   2.355   2.925   2.665  0.0000  0.0000  0.0000
    11DUM    Ar 1621   2.735   2.735   2.475  0.0000  0.0000  0.0000
    11DUM    Ar 1622   2.925   2.925   2.475  0.0000  0.0000  0.0000
    11DUM    Ar 1623   2.925   2.735   2.665  0.0000  0.0000  0.0000
    11DUM    Ar 1624   2.735   2.925   2.665  0.0000  0.0000  0.0000
    11DUM    Ar 1625   0.075   0.075   2.855  0.0000  0.0000  0.0000
    11DUM    Ar 1626   0.265   0.265   2.855  0.0000  0.0000  0.0000
    11DUM    Ar 1627   0.265   0.075   3.045  0.0000  0.0000  0.0000
    11DUM    Ar 1628   0.075   0.265   3.045  0.0000  0.0000  0.0000
    11DUM    Ar 1629   0.455   0.075   2.855  0.0000  0.0000  0.0000
    11DUM    Ar 1630   0.645   0.265   2.855  0.0000  0.0000  0.0000
    11DUM    Ar 1631   0.645   0.075   3.045  0.0000  0.0000  0.0000
    11DUM    Ar 1632   0.455   0.265   3.045  0.0000  0.0000  0.0000
    11DUM    Ar 1633   0.835   0.075   2.855  0.0000  0.0000  0.0000
    11DUM    Ar 1634   1.025   0.265   2.855  0.0000  0.0000  0.0000
    11DUM    Ar 1635   1.025   0.075   3.045  0.0000  0.0000  0.0000
    11DUM    Ar 1636   0.835   0.265   3.045  0.0000  0.0000  0.0000
    11DUM    Ar 1637   1.215   0.075   2.855  0.0000  0.0000  0.0000
    11DUM    Ar 1638   1.405   0.265   2.855  0.0000  0.0000  0.0000
    11DUM    Ar 1639   1.405   0.075   3.045  0.0000  0.0000  0.0000
    11DUM    Ar 1640   1.215   0.265   3.045  0.0000  0.0000  0.0000
    11DUM    Ar 1641   1.595   0.075   2.855  0.0000  0.0000  0.0000
    11DUM    Ar 1642   1.785   0.265   2.855  0.0000  0.0000  0.0000
    11DUM    Ar 1643   1.785   0.075   3.045  0.0000  0.0000  0.0000
    11DUM    Ar 1644   1.595   0.265   3.045  0.0000  0.0000  0.0000
    11DUM    Ar 1645   1.975   0.075   2.855  0.0000  0.0000  0.0000
    11DUM    Ar 1646   2.165   0.265   2.855  0.0000  0.0000  0.0000
    11DUM    Ar 1647   2.165   0.075   3.045  0.0000  0.0000  0.0000
    11DUM    Ar 1648   1.975   0.265   3.045  0.0000  0.0000  0.0000
    11DUM    Ar 1649   2.355   0.075   2.855  0.0000  0.0000  0.0000
    11DUM    Ar 1650   2.545   0.265   2.855  0.0000  0.0000  0.0000
    11DUM    Ar 1651   2.545   0.075   3.045  0.0000  0.0000  0.0000
    11DUM    Ar 1652   2.355   0.265   3.045  0.0000  0.0000  0.0000
    11DUM    Ar 1653   2.735   0.075   2.855  0.0000  0.0000  0.0000
    11DUM    Ar 1654   2.925   0.265   2.855  0.0000  0.0000  0.0000
    11DUM    Ar 1655   2.925   0.075   3.045  0.0000  0.0000  0.0000
    11DUM    Ar 1656   2.735   0.265   3.045  0.0000  0.0000  0.0000
    11DUM    Ar 1657   0.075   0.455   2.855  0.0000  0.0000  0.0000
    11DUM    Ar 1658   0.265   0.645   2.855  0.0000  0.0000  0.0000
    11DUM    Ar 1659   0.265   0.455   3.045  0.0000  0.0000  0.0000
    11DUM    Ar 1660   0.075   0.645   3.045  0.0000  0.0000  0.0000
    11DUM    Ar 1661   0.455   0.455   2.855  0.0000  0.0000  0.0000
    11DUM    Ar 1662   0.645   0.645   2.855  0.0000  0.0000  0.0000
    11DUM    Ar 1663   0.645   0.455   3.045  0.0000  0.0000  0.0000
    11DUM    Ar 1664   0.455   0.645   3.045  0.0000  0.0000  0.0000
    11DUM    Ar 1665   0.835   0.455   2.855  0.0000  0.0000  0.0000
    11DUM    Ar 1666   1.025   0.645   2.855  0.0000  0.0000  0.0000
    11DUM    Ar 1667   1.025   0.455   3.045  0.0000  0.0000  0.0000
    11DUM    Ar 1668   0.835   0.645   3.045  0.0000  0.0000  0.0000
    11DUM    Ar 1669   1.215   0.455   2.855  0.0000  0.0000  0.0000
    11DUM    Ar 1670   1.405   0.645   2.855  0.0000  0.0000  0.0000
    11DUM    Ar 1671   1.405   0.455   3.045  0.0000  0.0000  0.0000
    11DUM    Ar 1672   1.215   0.645   3.045  0.0000  0.0000  0.0000
    11DUM    Ar 1673   1.595   0.455   2.855  0.0000  0.0000  0.0000
    11DUM    Ar 1674   1.785   0.645   2.855  0.0000  0.0000  0.0000
    11DUM    Ar 1675   1.785   0.455   3.045  0.0000  0.0000  0.0000
    11DUM    Ar 1676   1.595   0.645   3.045  0.0000  0.0000  0.0000
    11DUM    Ar 1677   1.975   0.455   2.855  0.0000  0.0000  0.0000
    11DUM    Ar 1678   2.165   0.645   2.855  0.0000  0.0000  0.0000
    11DUM    Ar 1679   2.165   0.455   3.045  0.0000  0.0000  0.0000
    11DUM    Ar 1680   1.975   0.645   3.045  0.0000  0.0000  0.0000
    11DUM    Ar 1681   2.355   0.455   2.855  0.0000  0.0000  0.0000
    11DUM    Ar 1682   2.545   0.645   2.855  0.0000  0.0000  0.0000
    11DUM    Ar 1683   2.545   0.455   3.045  0.0000  0.0000  0.0000
    11DUM    Ar 1684   2.355   0.645   3.045  0.0000  0.0000  0.0000
    11DUM    Ar 1685   2.735   0.455   2.855  0.0000  0.0000  0.0000
    11DUM    Ar 1686   2.925   0.645   2.855  0.0000  0.0000  0.0000
    11DUM    Ar 1687   2.925   0.455   3.045  0.0000  0.0000  0.0000
    11DUM    Ar 1688   2.735   0.645   3.045  0.0000  0.0000  0.0000
    11DUM    Ar 1689   0.075   0.835   2.855  0.0000  0.0000  0.0000
    11DUM    Ar 1690   0.265   1.025   2.855  0.0000  0.0000  0.0000
    11DUM    Ar 1691   0.265   0.835   3.045  0.0000  0.0000  0.0000
    11DUM    Ar 1692   0.075   1.025   3.045  0.0000  0.0000  0.0000
    11DUM    Ar 1693   0.455   0.835   2.855  0.0000  0.0000  0.0000
    11DUM    Ar 1694   0.645   1.025   2.855  0.0000  0.0000  0.0000
    11DUM    Ar 1695   0.645   0.835   3.045  0.0000  0.0000  0.0000
    11DUM    Ar 1696   0.455   1.025   3.045  0.0000  0.0000  0.0000
    11DUM    Ar 1697   0.835   0.835   2.855  0.0000  0.0000  0.0000
    11DUM    Ar 1698   1.025   1.025   2.855  0.0000  0.0000  0.0000
    11DUM    Ar 1699   1.025   0.835   3.045  0.0000  0.0000  0.0000
    11DUM    Ar 1700   0.835   1.025   3.045  0.0000  0.0000  0.0000
    11DUM    Ar 1701   1.215   0.835   2.855  0.0000  0.0000  0.0000
    11DUM    Ar 1702   1.405   0.835   3.045  0.0000  0.0000  0.0000
    11DUM    Ar 1703   1.215   1.025   3.045  0.0000  0.0000  0.0000
    11DUM    Ar 1704   1.595   0.835   2.855  0.0000  0.0000  0.0000
    11DUM    Ar 1705   1.785   1.025   2.855  0.0000  0.0000  0.0000
    11DUM    Ar 1706   1.785   0.835   3.045  0.0000  0.0000  0.0000
    11DUM    Ar 1707   1.975   0.835   2.855  0.0000  0.0000  0.0000
    11DUM    Ar 1708   2.165   1.025   2.855  0.0000  0.0000  0.0000
    11DUM    Ar 1709   2.165   0.835   3.045  0.0000  0.0000  0.0000
    11DUM    Ar 1710   1.975   1.025   3.045  0.0000  0.0000  0.0000
    11DUM    Ar 1711   2.355   0.835   2.855  0.0000  0.0000  0.0000
    11DUM    Ar 1712   2.545   1.025   2.855  0.0000  0.0000  0.0000
    11DUM    Ar 1713   2.545   0.835   3.045  0.0000  0.0000  0.0000
    11DUM    Ar 1714   2.355   1.025   3.045  0.0000  0.0000  0.0000
    11DUM    Ar 1715   2.735   0.835   2.855  0.0000  0.0000  0.0000
    11DUM    Ar 1716   2.925   1.025   2.855  0.0000  0.0000  0.0000
    11DUM    Ar 1717   2.925   0.835   3.045  0.0000  0.0000  0.0000
    11DUM    Ar 1718   2.735   1.025   3.045  0.0000  0.0000  0.0000
    11DUM    Ar 1719   0.075   1.215   2.855  0.0000  0.0000  0.0000
    11DUM    Ar 1720   0.265   1.405   2.855  0.0000  0.0000  0.0000
    11DUM    Ar 1721   0.265   1.215   3.045  0.0000  0.0000  0.0000
    11DUM    Ar 1722   0.075   1.405   3.045  0.0000  0.0000  0.0000
    11DUM    Ar 1723   0.455   1.215   2.855  0.0000  0.0000  0.0000
    11DUM    Ar 1724   0.645   1.405   2.855  0.0000  0.0000  0.0000
    11DUM    Ar 1725   0.645   1.215   3.045  0.0000  0.0000  0.0000
    11DUM    Ar 1726   0.455   1.405   3.045  0.0000  0.0000  0.0000
    11DUM    Ar 1727   0.835   1.215   2.855  0.0000  0.0000  0.0000
    11DUM    Ar 1728   1.025   1.215   3.045  0.0000  0.0000  0.0000
    11DUM    Ar 1729   0.835   1.405   3.045  0.0000  0.0000  0.0000
    11DUM    Ar 1730   1.975   1.215   2.855  0.0000  0.0000  0.0000
    11DUM    Ar 1731   2.165   1.405   2.855  0.0000  0.0000  0.0000
    11DUM    Ar 1732   2.165   1.215   3.045  0.0000  0.0000  0.0000
    11DUM    Ar 1733   2.355   1.215   2.855  0.0000  0.0000  0.0000
    11DUM    Ar 1734   2.545   1.405   2.855  0.0000  0.0000  0.0000
    11DUM    Ar 1735   2.545   1.215   3.045  0.0000  0.0000  0.0000
    11DUM    Ar 1736   2.355   1.405   3.045  0.0000  0.0000  0.0000
    11DUM    Ar 1737   2.735   1.215   2.855  0.0000  0.0000  0.0000
    11DUM    Ar 1738   2.925   1.405   2.855  0.0000  0.0000  0.0000
    11DUM    Ar 1739   2.925   1.215   3.045  0.0000  0.0000  0.0000
    11DUM    Ar 1740   2.735   1.405   3.045  0.0000  0.0000  0.0000
    11DUM    Ar 1741   0.075   1.595   2.855  0.0000  0.0000  0.0000
    11DUM    Ar 1742   0.265   1.785   2.855  0.0000  0.0000  0.0000
    11DUM    Ar 1743   0.265   1.595   3.045  0.0000  0.0000  0.0000
    11DUM    Ar 1744   0.075   1.785   3.045  0.0000  0.0000  0.0000
    11DUM    Ar 1745   0.455   1.595   2.855  0.0000  0.0000  0.0000
    11DUM    Ar 1746   0.645   1.785   2.855  0.0000  0.0000  0.0000
    11DUM    Ar 1747   0.645   1.595   3.045  0.0000  0.0000  0.0000
    11DUM    Ar 1748   0.455   1.785   3.045  0.0000  0.0000  0.0000
    11DUM    Ar 1749   0.835   1.595   2.855  0.0000  0.0000  0.0000
    11DUM    Ar 1750   1.025   1.785   2.855  0.0000  0.0000  0.0000
    11DUM    Ar 1751   0.835   1.785   3.045  0.0000  0.0000  0.0000
    11DUM    Ar 1752   2.165   1.785   2.855  0.0000  0.0000  0.0000
    11DUM    Ar 1753   2.165   1.595   3.045  0.0000  0.0000  0.0000
    11DUM    Ar 1754   1.975   1.785   3.045  0.0000  0.0000  0.0000
    11DUM    Ar 1755   2.355   1.595   2.855  0.0000  0.0000  0.0000
    11DUM    Ar 1756   2.545   1.785   2.855  0.0000  0.0000  0.0000
    11DUM    Ar 1757   2.545   1.595   3.045  0.0000  0.0000  0.0000
    11DUM    Ar 1758   2.355   1.785   3.045  0.0000  0.0000  0.0000
    11DUM    Ar 1759   2.735   1.595   2.855  0.0000  0.0000  0.0000
    11DUM    Ar 1760   2.925   1.785   2.855  0.0000  0.0000  0.0000
    11DUM    Ar 1761   2.925   1.595   3.045  0.0000  0.0000  0.0000
    11DUM    Ar 1762   2.735   1.785   3.045  0.0000  0.0000  0.0000
    11DUM    Ar 1763   0.075   1.975   2.855  0.0000  0.0000  0.0000
    11DUM    Ar 1764   0.265   2.165   2.855  0.0000  0.0000  0.0000
    11DUM    Ar 1765   0.265   1.975   3.045  0.0000  0.0000  0.0000
    11DUM    Ar 1766   0.075   2.165   3.045  0.0000  0.0000  0.0000
    11DUM    Ar 1767   0.455   1.975   2.855  0.0000  0.0000  0.0000
    11DUM    Ar 1768   0.645   2.165   2.855  0.0000  0.0000  0.0000
    11DUM    Ar 1769   0.645   1.975   3.045  0.0000  0.0000  0.0000
    11DUM    Ar 1770   0.455   2.165   3.045  0.0000  0.0000  0.0000
    11DUM    Ar 1771   0.835   1.975   2.855  0.0000  0.0000  0.0000
    11DUM    Ar 1772   1.025   2.165   2.855  0.0000  0.0000  0.0000
    11DUM    Ar 1773   1.025   1.975   3.045  0.0000  0.0000  0.0000
    11DUM    Ar 1774   0.835   2.165   3.045  0.0000  0.0000  0.0000
    11DUM    Ar 1775   1.215   1.975   2.855  0.0000  0.0000  0.0000
    11DUM    Ar 1776   1.405   2.165   2.855  0.0000  0.0000  0.0000
    11DUM    Ar 1777   1.215   2.165   3.045  0.0000  0.0000  0.0000
    11DUM    Ar 1778   1.785   2.165   2.855  0.0000  0.0000  0.0000
    11DUM    Ar 1779   1.785   1.975   3.045  0.0000  0.0000  0.0000
    11DUM    Ar 1780   1.595   2.165   3.045  0.0000  0.0000  0.0000
    11DUM    Ar 1781   1.975   1.975   2.855  0.0000  0.0000  0.0000
    11DUM    Ar 1782   2.165   2.165   2.855  0.0000  0.0000  0.0000
    11DUM    Ar 1783   2.165   1.975   3.045  0.0000  0.0000  0.0000
    11DUM    Ar 1784   1.975   2.165   3.045  0.0000  0.0000  0.0000
    11DUM    Ar 1785   2.355   1.975   2.855  0.0000  0.0000  0.0000
    11DUM    Ar 1786   2.545   2.165   2.855  0.0000  0.0000  0.0000
    11DUM    Ar 1787   2.545   1.975   3.045  0.0000  0.0000  0.0000
    11DUM    Ar 1788   2.355   2.165   3.045  0.0000  0.0000  0.0000
    11DUM    Ar 1789   2.735   1.975   2.855  0.0000  0.0000  0.0000
    11DUM    Ar 1790   2.925   2.165   2.855  0.0000  0.0000  0.0000
    11DUM    Ar 1791   2.925   1.975   3.045  0.0000  0.0000  0.0000
    11DUM    Ar 1792   2.735   2.165   3.045  0.0000  0.0000  0.0000
    11DUM    Ar 1793   0.075   2.355   2.855  0.0000  0.0000  0.0000
    11DUM    Ar 1794   0.265   2.545   2.855  0.0000  0.0000  0.0000
    11DUM    Ar 1795   0.265   2.355   3.045  0.0000  0.0000  0.0000
    11DUM    Ar 1796   0.075   2.545   3.045  0.0000  0.0000  0.0000
    11DUM    Ar 1797   0.455   2.355   2.855  0.0000  0.0000  0.0000
    11DUM    Ar 1798   0.645   2.545   2.855  0.0000  0.0000  0.0000
    11DUM    Ar 1799   0.645   2.355   3.045  0.0000  0.0000  0.0000
    11DUM    Ar 1800   0.455   2.545   3.045  0.0000  0.0000  0.0000
    11DUM    Ar 1801   0.835   2.355   2.855  0.0000  0.0000  0.0000
    11DUM    Ar 1802   1.025   2.545   2.855  0.0000  0.0000  0.0000
    11DUM    Ar 1803   1.025   2.355   3.045  0.0000  0.0000  0.0000
    11DUM    Ar 1804   0.835   2.545   3.045  0.0000  0.0000  0.0000
    11DUM    Ar 1805   1.215   2.355   2.855  0.0000  0.0000  0.0000
    11DUM    Ar 1806   1.405   2.545   2.855  0.0000  0.0000  0.0000
    11DUM    Ar 1807   1.405   2.355   3.045  0.0000  0.0000  0.0000
    11DUM    Ar 1808   1.215   2.545   3.045  0.0000  0.0000  0.0000
    11DUM    Ar 1809   1.595   2.355   2.855  0.0000  0.0000  0.0000
    11DUM    Ar 1810   1.785   2.545   2.855  0.0000  0.0000  0.0000
    11DUM    Ar 1811   1.785   2.355   3.045  0.0000  0.0000  0.0000
    11DUM    Ar 1812   1.595   2.545   3.045  0.0000  0.0000  0.0000
    11DUM    Ar 1813   1.975   2.355   2.855  0.0000  0.0000  0.0000
    11DUM    Ar 1814   2.165   2.545   2.855  0.0000  0.0000  0.0000
    11DUM    Ar 1815   2.165   2.355   3.045  0.0000  0.0000  0.0000
    11DUM    Ar 1816   1.975   2.545   3.045  0.0000  0.0000  0.0000
    11DUM    Ar 1817   2.355   2.355   2.855  0.0000  0.0000  0.0000
    11DUM    Ar 1818   2.545   2.545   2.855  0.0000  0.0000  0.0000
    11DUM    Ar 1819   2.545   2.355   3.045  0.0000  0.0000  0.0000
    11DUM    Ar 1820   2.355   2.545   3.045  0.0000  0.0000  0.0000
    11DUM    Ar 1821   2.735   2.355   2.855  0.0000  0.0000  0.0000
    11DUM    Ar 1822   2.925   2.545   2.855  0.0000  0.0000  0.0000
    11DUM    Ar 1823   2.925   2.355   3.045  0.0000  0.0000  0.0000
    11DUM    Ar 1824   2.735   2.545   3.045  0.0000  0.0000  0.0000
    11DUM    Ar 1825   0.075   2.735   2.855  0.0000  0.0000  0.0000
    11DUM    Ar 1826   0.265   2.925   2.855  0.0000  0.0000  0.0000
    11DUM    Ar 1827   0.265   2.735   3.045  0.0000  0.0000  0.0000
    11DUM    Ar 1828   0.075   2.925   3.045  0.0000  0.0000  0.0000
    11DUM    Ar 1829   0.455   2.735   2.855  0.0000  0.0000  0.0000
    11DUM    Ar 1830   0.645   2.925   2.855  0.0000  0.0000  0.0000
    11DUM    Ar 1831   0.645   2.735   3.045  0.0000  0.0000  0.0000
    11DUM    Ar 1832   0.455   2.925   3.045  0.0000  0.0000  0.0000
    11DUM    Ar 1833   0.835   2.735   2.855  0.0000  0.0000  0.0000
    11DUM    Ar 1834   1.025   2.925   2.855  0.0000  0.0000  0.0000
    11DUM    Ar 1835   1.025   2.735   3.045  0.0000  0.0000  0.0000
    11DUM    Ar 1836   0.835   2.925   3.045  0.0000  0.0000  0.0000
    11DUM    Ar 1837   1.215   2.735   2.855  0.0000  0.0000  0.0000
    11DUM    Ar 1838   1.405   2.925   2.855  0.0000  0.0000  0.0000
    11DUM    Ar 1839   1.405   2.735   3.045  0.0000  0.0000  0.0000
    11DUM    Ar 1840   1.215   2.925   3.045  0.0000  0.0000  0.0000
    11DUM    Ar 1841   1.595   2.735   2.855  0.0000  0.0000  0.0000
    11DUM    Ar 1842   1.785   2.925   2.855  0.0000  0.0000  0.0000
    11DUM    Ar 1843   1.785   2.735   3.045  0.0000  0.0000  0.0000
    11DUM    Ar 1844   1.595   2.925   3.045  0.0000  0.0000  0.0000
    11DUM    Ar 1845   1.975   2.735   2.855  0.0000  0.0000  0.0000
    11DUM    Ar 1846   2.165   2.925   2.855  0.0000  0.0000  0.0000
    11DUM    Ar 1847   2.165   2.735   3.045  0.0000  0.0000  0.0000
    11DUM    Ar 1848   1.975   2.925   3.045  0.0000  0.0000  0.0000
    11DUM    Ar 1849   2.355   2.735   2.855  0.0000  0.0000  0.0000
    11DUM    Ar 1850   2.545   2.925   2.855  0.0000  0.0000  0.0000
    11DUM    Ar 1851   2.545   2.735   3.045  0.0000  0.0000  0.0000
    11DUM    Ar 1852   2.355   2.925   3.045  0.0000  0.0000  0.0000
    11DUM    Ar 1853   2.735   2.735   2.855  0.0000  0.0000  0.0000
    11DUM    Ar 1854   2.925   2.925   2.855  0.0000  0.0000  0.0000
    11DUM    Ar 1855   2.925   2.735   3.045  0.0000  0.0000  0.0000
    11DUM    Ar 1856   2.735   2.925   3.045  0.0000  0.0000  0.0000
    11DUM    Ar 1857   0.075   0.075   3.235  0.0000  0.0000  0.0000
    11DUM    Ar 1858   0.265   0.265   3.235  0.0000  0.0000  0.0000
    11DUM    Ar 1859   0.265   0.075   3.425  0.0000  0.0000  0.0000
    11DUM    Ar 1860   0.075   0.265   3.425  0.0000  0.0000  0.0000
    11DUM    Ar 1861   0.455   0.075   3.235  0.0000  0.0000  0.0000
    11DUM    Ar 1862   0.645   0.265   3.235  0.0000  0.0000  0.0000
    11DUM    Ar 1863   0.645   0.075   3.425  0.0000  0.0000  0.0000
    11DUM    Ar 1864   0.455   0.265   3.425  0.0000  0.0000  0.0000
    11DUM    Ar 1865   0.835   0.075   3.235  0.0000  0.0000  0.0000
    11DUM    Ar 1866   1.025   0.265   3.235  0.0000  0.0000  0.0000
    11DUM    Ar 1867   1.025   0.075   3.425  0.0000  0.0000  0.0000
    11DUM    Ar 1868   0.835   0.265   3.425  0.0000  0.0000  0.0000
    11DUM    Ar 1869   1.215   0.075   3.235  0.0000  0.0000  0.0000
    11DUM    Ar 1870   1.405   0.265   3.235  0.0000  0.0000  0.0000
    11DUM    Ar 1871   1.405   0.075   3.425  0.0000  0.0000  0.0000
    11DUM    Ar 1872   1.215   0.265   3.425  0.0000  0.0000  0.0000
    11DUM    Ar 1873   1.595   0.075   3.235  0.0000  0.0000  0.0000
    11DUM    Ar 1874   1.785   0.265   3.235  0.0000  0.0000  0.0000
    11DUM    Ar 1875   1.785   0.075   3.425  0.0000  0.0000  0.0000
    11DUM    Ar 1876   1.595   0.265   3.425  0.0000  0.0000  0.0000
    11DUM    Ar 1877   1.975   0.075   3.235  0.0000  0.0000  0.0000
    11DUM    Ar 1878   2.165   0.265   3.235  0.0000  0.0000  0.0000
    11DUM    Ar 1879   2.165   0.075   3.425  0.0000  0.0000  0.0000
    11DUM    Ar 1880   1.975   0.265   3.425  0.0000  0.0000  0.0000
    11DUM    Ar 1881   2.355   0.075   3.235  0.0000  0.0000  0.0000
    11DUM    Ar 1882   2.545   0.265   3.235  0.0000  0.0000  0.0000
    11DUM    Ar 1883   2.545   0.075   3.425  0.0000  0.0000  0.0000
    11DUM    Ar 1884   2.355   0.265   3.425  0.0000  0.0000  0.0000
    11DUM    Ar 1885   2.735   0.075   3.235  0.0000  0.0000  0.0000
    11DUM    Ar 1886   2.925   0.265   3.235  0.0000  0.0000  0.0000
    11DUM    Ar 1887   2.925   0.075   3.425  0.0000  0.0000  0.0000
    11DUM    Ar 1888   2.735   0.265   3.425  0.0000  0.0000  0.0000
    11DUM    Ar 1889   0.075   0.455   3.235  0.0000  0.0000  0.0000
    11DUM    Ar 1890   0.265   0.645   3.235  0.0000  0.0000  0.0000
    11DUM    Ar 1891   0.265   0.455   3.425  0.0000  0.0000  0.0000
    11DUM    Ar 1892   0.075   0.645   3.425  0.0000  0.0000  0.0000
    11DUM    Ar 1893   0.455   0.455   3.235  0.0000  0.0000  0.0000
    11DUM    Ar 1894   0.645   0.645   3.235  0.0000  0.0000  0.0000
    11DUM    Ar 1895   0.645   0.455   3.425  0.0000  0.0000  0.0000
    11DUM    Ar 1896   0.455   0.645   3.425  0.0000  0.0000  0.0000
    11DUM    Ar 1897   0.835   0.455   3.235  0.0000  0.0000  0.0000
    11DUM    Ar 1898   1.025   0.645   3.235  0.0000  0.0000  0.0000
    11DUM    Ar 1899   1.025   0.455   3.425  0.0000  0.0000  0.0000
    11DUM    Ar 1900   0.835   0.645   3.425  0.0000  0.0000  0.0000
    11DUM    Ar 1901   1.215   0.455   3.235  0.0000  0.0000  0.0000
    11DUM    Ar 1902   1.405   0.645   3.235  0.0000  0.0000  0.0000
    11DUM    Ar 1903   1.405   0.455   3.425  0.0000  0.0000  0.0000
    11DUM    Ar 1904   1.215   0.645   3.425  0.0000  0.0000  0.0000
    11DUM    Ar 1905   1.595   0.455   3.235  0.0000  0.0000  0.0000
    11DUM    Ar 1906   1.785   0.645   3.235  0.0000  0.0000  0.0000
    11DUM    Ar 1907   1.785   0.455   3.425  0.0000  0.0000  0.0000
    11DUM    Ar 1908   1.595   0.645   3.425  0.0000  0.0000  0.0000
    11DUM    Ar 1909   1.975   0.455   3.235  0.0000  0.0000  0.0000
    11DUM    Ar 1910   2.165   0.645   3.235  0.0000  0.0000  0.0000
    11DUM    Ar 1911   2.165   0.455   3.425  0.0000  0.0000  0.0000
    11DUM    Ar 1912   1.975   0.645   3.425  0.0000  0.0000  0.0000
    11DUM    Ar 1913   2.355   0.455   3.235  0.0000  0.0000  0.0000
    11DUM    Ar 1914   2.545   0.645   3.235  0.0000  0.0000  0.0000
    11DUM    Ar 1915   2.545   0.455   3.425  0.0000  0.0000  0.0000
    11DUM    Ar 1916   2.355   0.645   3.425  0.0000  0.0000  0.0000
    11DUM    Ar 1917   2.735   0.455   3.235  0.0000  0.0000  0.0000
    11DUM    Ar 1918   2.925   0.645   3.235  0.0000  0.0000  0.0000
    11DUM    Ar 1919   2.925   0.455   3.425  0.0000  0.0000  0.0000
    11DUM    Ar 1920   2.735   0.645   3.425  0.0000  0.0000  0.0000
    11DUM    Ar 1921   0.075   0.835   3.235  0.0000  0.0000  0.0000
    11DUM    Ar 1922   0.265   1.025   3.235  0.0000  0.0000  0.0000
    11DUM    Ar 1923   0.265   0.835   3.425  0.0000  0.0000  0.0000
    11DUM    Ar 1924   0.075   1.025   3.425  0.0000  0.0000  0.0000
    11DUM    Ar 1925   0.455   0.835   3.235  0.0000  0.0000  0.0000
    11DUM    Ar 1926   0.645   1.025   3.235  0.0000  0.0000  0.0000
    11DUM    Ar 1927   0.645   0.835   3.425  0.0000  0.0000  0.0000
    11DUM    Ar 1928   0.455   1.025   3.425  0.0000  0.0000  0.0000
    11DUM    Ar 1929   0.835   0.835   3.235  0.0000  0.0000  0.0000
    11DUM    Ar 1930   1.025   1.025   3.235  0.0000  0.0000  0.0000
    11DUM    Ar 1931   1.025   0.835   3.425  0.0000  0.0000  0.0000
    11DUM    Ar 1932   0.835   1.025   3.425  0.0000  0.0000  0.0000
    11DUM    Ar 1933   1.215   0.835   3.235  0.0000  0.0000  0.0000
    11DUM    Ar 1934   1.405   0.835   3.425  0.0000  0.0000  0.0000
    11DUM    Ar 1935   1.215   1.025   3.425  0.0000  0.0000  0.0000
    11DUM    Ar 1936   1.595   0.835   3.235  0.0000  0.0000  0.0000
    11DUM    Ar 1937   1.785   1.025   3.235  0.0000  0.0000  0.0000
    11DUM    Ar 1938   1.785   0.835   3.425  0.0000  0.0000  0.0000
    11DUM    Ar 1939   1.975   0.835   3.235  0.0000  0.0000  0.0000
    11DUM    Ar 1940   2.165   1.025   3.235  0.0000  0.0000  0.0000
    11DUM    Ar 1941   2.165   0.835   3.425  0.0000  0.0000  0.0000
    11DUM    Ar 1942   1.975   1.025   3.425  0.0000  0.0000  0.0000
    11DUM    Ar 1943   2.355   0.835   3.235  0.0000  0.0000  0.0000
    11DUM    Ar 1944   2.545   1.025   3.235  0.0000  0.0000  0.0000
    11DUM    Ar 1945   2.545   0.835   3.425  0.0000  0.0000  0.0000
    11DUM    Ar 1946   2.355   1.025   3.425  0.0000  0.0000  0.0000
    11DUM    Ar 1947   2.735   0.835   3.235  0.0000  0.0000  0.0000
    11DUM    Ar 1948   2.925   1.025   3.235  0.0000  0.0000  0.0000
    11DUM    Ar 1949   2.925   0.835   3.425  0.0000  0.0000  0.0000
    11DUM    Ar 1950   2.735   1.025   3.425  0.0000  0.0000  0.0000
    11DUM    Ar 1951   0.075   1.215   3.235  0.0000  0.0000  0.0000
    11DUM    Ar 1952   0.265   1.405   3.235  0.0000  0.0000  0.0000
    11DUM    Ar 1953   0.265   1.215   3.425  0.0000  0.0000  0.0000
    11DUM    Ar 1954   0.075   1.405   3.425  0.0000  0.0000  0.0000
    11DUM    Ar 1955   0.455   1.215   3.235  0.0000  0.0000  0.0000
    11DUM    Ar 1956   0.645   1.405   3.235  0.0000  0.0000  0.0000
    11DUM    Ar 1957   0.645   1.215   3.425  0.0000  0.0000  0.0000
    11DUM    Ar 1958   0.455   1.405   3.425  0.0000  0.0000  0.0000
    11DUM    Ar 1959   0.835   1.215   3.235  0.0000  0.0000  0.0000
    11DUM    Ar 1960   1.025   1.215   3.425  0.0000  0.0000  0.0000
    11DUM    Ar 1961   0.835   1.405   3.425  0.0000  0.0000  0.0000
    11DUM    Ar 1962   1.975   1.215   3.235  0.0000  0.0000  0.0000
    11DUM    Ar 1963   2.165   1.405   3.235  0.0000  0.0000  0.0000
    11DUM    Ar 1964   2.165   1.215   3.425  0.0000  0.0000  0.0000
    11DUM    Ar 1965   2.355   1.215   3.235  0.0000  0.0000  0.0000
    11DUM    Ar 1966   2.545   1.405   3.235  0.0000  0.0000  0.0000
    11DUM    Ar 1967   2.545   1.215   3.425  0.0000  0.0000  0.0000
    11DUM    Ar 1968   2.355   1.405   3.425  0.0000  0.0000  0.0000
    11DUM    Ar 1969   2.735   1.215   3.235  0.0000  0.0000  0.0000
    11DUM    Ar 1970   2.925   1.405   3.235  0.0000  0.0000  0.0000
    11DUM    Ar 1971   2.925   1.215   3.425  0.0000  0.0000  0.0000
    11DUM    Ar 1972   2.735   1.405   3.425  0.0000  0.0000  0.0000
    11DUM    Ar 1973   0.075   1.595   3.235  0.0000  0.0000  0.0000
    11DUM    Ar 1974   0.265   1.785   3.235  0.0000  0.0000  0.0000
    11DUM    Ar 1975   0.265   1.595   3.425  0.0000  0.0000  0.0000
    11DUM    Ar 1976   0.075   1.785   3.425  0.0000  0.0000  0.0000
    11DUM    Ar 1977   0.455   1.595   3.235  0.0000  0.0000  0.0000
    11DUM    Ar 1978   0.645   1.785   3.235  0.0000  0.0000  0.0000
    11DUM    Ar 1979   0.645   1.595   3.425  0.0000  0.0000  0.0000
    11DUM    Ar 1980   0.455   1.785   3.425  0.0000  0.0000  0.0000
    11DUM    Ar 1981   0.835   1.595   3.235  0.0000  0.0000  0.0000
    11DUM    Ar 1982   1.025   1.785   3.235  0.0000  0.0000  0.0000
    11DUM    Ar 1983   0.835   1.785   3.425  0.0000  0.0000  0.0000
    11DUM    Ar 1984   2.165   1.785   3.235  0.0000  0.0000  0.0000
    11DUM    Ar 1985   2.165   1.595   3.425  0.0000  0.0000  0.0000
    11DUM    Ar 1986   1.975   1.785   3.425  0.0000  0.0000  0.0000
    11DUM    Ar 1987   2.355   1.595   3.235  0.0000  0.0000  0.0000
    11DUM    Ar 1988   2.545   1.785   3.235  0.0000  0.0000  0.0000
    11DUM    Ar 1989   2.545   1.595   3.425  0.0000  0.0000  0.0000
    11DUM    Ar 1990   2.355   1.785   3.425  0.0000  0.0000  0.0000
    11DUM    Ar 1991   2.735   1.595   3.235  0.0000  0.0000  0.0000
    11DUM    Ar 1992   2.925   1.785   3.235  0.0000  0.0000  0.0000
    11DUM    Ar 1993   2.925   1.595   3.425  0.0000  0.0000  0.0000
    11DUM    Ar 1994   2.735   1.785   3.425  0.0000  0.0000  0.0000
    11DUM    Ar 1995   0.075   1.975   3.235  0.0000  0.0000  0.0000
    11DUM    Ar 1996   0.265   2.165   3.235  0.0000  0.0000  0.0000
    11DUM    Ar 1997   0.265   1.975   3.425  0.0000  0.0000  0.0000
    11DUM    Ar 1998   0.075   2.165   3.425  0.0000  0.0000  0.0000
    11DUM    Ar 1999   0.455   1.975   3.235  0.0000  0.0000  0.0000
    11DUM    Ar 2000   0.645   2.165   3.235  0.0000  0.0000  0.0000
    11DUM    Ar 2001   0.645   1.975   3.425  0.0000  0.0000  0.0000
    11DUM    Ar 2002   0.455   2.165   3.425  0.0000  0.0000  0.0000
    11DUM    Ar 2003   0.835   1.975   3.235  0.0000  0.0000  0.0000
    11DUM    Ar 2004   1.025   2.165   3.235  0.0000  0.0000  0.0000
    11DUM    Ar 2005   1.025   1.975   3.425  0.0000  0.0000  0.0000
    11DUM    Ar 2006   0.835   2.165   3.425  0.0000  0.0000  0.0000
    11DUM    Ar 2007   1.215   1.975   3.235  0.0000  0.0000  0.0000
    11DUM    Ar 2008   1.405   2.165   3.235  0.0000  0.0000  0.0000
    11DUM    Ar 2009   1.215   2.165   3.425  0.0000  0.0000  0.0000
    11DUM    Ar 2010   1.785   2.165   3.235  0.0000  0.0000  0.0000
    11DUM    Ar 2011   1.785   1.975   3.425  0.0000  0.0000  0.0000
    11DUM    Ar 2012   1.595   2.165   3.425  0.0000  0.0000  0.0000
    11DUM    Ar 2013   1.975   1.975   3.235  0.0000  0.0000  0.0000
    11DUM    Ar 2014   2.165   2.165   3.235  0.0000  0.0000  0.0000
    11DUM    Ar 2015   2.165   1.975   3.425  0.0000  0.0000  0.0000
    11DUM    Ar 2016   1.975   2.165   3.425  0.0000  0.0000  0.0000
    11DUM    Ar 2017   2.355   1.975   3.235  0.0000  0.0000  0.0000
    11DUM    Ar 2018   2.545   2.165   3.235  0.0000  0.0000  0.0000
    11DUM    Ar 2019   2.545   1.975   3.425  0.0000  0.0000  0.0000
    11DUM    Ar 2020   2.355   2.165   3.425  0.0000  0.0000  0.0000
    11DUM    Ar 2021   2.735   1.975   3.235  0.0000  0.0000  0.0000
    11DUM    Ar 2022   2.925   2.165   3.235  0.0000  0.0000  0.0000
    11DUM    Ar 2023   2.925   1.975   3.425  0.0000  0.0000  0.0000
    11DUM    Ar 2024   2.735   2.165   3.425  0.0000  0.0000  0.0000
    11DUM    Ar 2025   0.075   2.355   3.235  0.0000  0.0000  0.0000
    11DUM    Ar 2026   0.265   2.545   3.235  0.0000  0.0000  0.0000
    11DUM    Ar 2027   0.265   2.355   3.425  0.0000  0.0000  0.0000
    11DUM    Ar 2028   0.075   2.545   3.425  0.0000  0.0000  0.0000
    11DUM    Ar 2029   0.455   2.355   3.235  0.0000  0.0000  0.0000
    11DUM    Ar 2030   0.645   2.545   3.235  0.0000  0.0000  0.0000
    11DUM    Ar 2031   0.645   2.355   3.425  0.0000  0.0000  0.0000
    11DUM    Ar 2032   0.455   2.545   3.425  0.0000  0.0000  0.0000
    11DUM    Ar 2033   0.835   2.355   3.235  0.0000  0.0000  0.0000
    11DUM    Ar 2034   1.025   2.545   3.235  0.0000  0.0000  0.0000
    11DUM    Ar 2035   1.025   2.355   3.425  0.0000  0.0000  0.0000
    11DUM    Ar 2036   0.835   2.545   3.425  0.0000  0.0000  0.0000
    11DUM    Ar 2037   1.215   2.355   3.235  0.0000  0.0000  0.0000
    11DUM    Ar 2038   1.405   2.545   3.235  0.0000  0.0000  0.0000
    11DUM    Ar 2039   1.405   2.355   3.425  0.0000  0.0000  0.0000
    11DUM    Ar 2040   1.215   2.545   3.425  0.0000  0.0000  0.0000
    11DUM    Ar 2041   1.595   2.355   3.235  0.0000  0.0000  0.0000
    11DUM    Ar 2042   1.785   2.545   3.235  0.0000  0.0000  0.0000
    11DUM    Ar 2043   1.785   2.355   3.425  0.0000  0.0000  0.0000
    11DUM    Ar 2044   1.595   2.545   3.425  0.0000  0.0000  0.0000
    11DUM    Ar 2045   1.975   2.355   3.235  0.0000  0.0000  0.0000
    11DUM    Ar 2046   2.165   2.545   3.235  0.0000  0.0000  0.0000
    11DUM    Ar 2047   2.165   2.355   3.425  0.0000  0.0000  0.0000
    11DUM    Ar 2048   1.975   2.545   3.425  0.0000  0.0000  0.0000
    11DUM    Ar 2049   2.355   2.355   3.235  0.0000  0.0000  0.0000
    11DUM    Ar 2050   2.545   2.545   3.235  0.0000  0.0000  0.0000
    11DUM    Ar 2051   2.545   2.355   3.425  0.0000  0.0000  0.0000
    11DUM    Ar 2052   2.355   2.545   3.425  0.0000  0.0000  0.0000
    11DUM    Ar 2053   2.735   2.355   3.235  0.0000  0.0000  0.0000
    11DUM    Ar 2054   2.925   2.545   3.235  0.0000  0.0000  0.0000
    11DUM    Ar 2055   2.925   2.355   3.425  0.0000  0.0000  0.0000
    11DUM    Ar 2056   2.735   2.545   3.425  0.0000  0.0000  0.0000
    11DUM    Ar 2057   0.075   2.735   3.235  0.0000  0.0000  0.0000
    11DUM    Ar 2058   0.265   2.925   3.235  0.0000  0.0000  0.0000
    11DUM    Ar 2059   0.265   2.735   3.425  0.0000  0.0000  0.0000
    11DUM    Ar 2060   0.075   2.925   3.425  0.0000  0.0000  0.0000
    11DUM    Ar 2061   0.455   2.735   3.235  0.0000  0.0000  0.0000
    11DUM    Ar 2062   0.645   2.925   3.235  0.0000  0.0000  0.0000
    11DUM    Ar 2063   0.645   2.735   3.425  0.0000  0.0000  0.0000
    11DUM    Ar 2064   0.455   2.925   3.425  0.0000  0.0000  0.0000
    11DUM    Ar 2065   0.835   2.735   3.235  0.0000  0.0000  0.0000
    11DUM    Ar 2066   1.025   2.925   3.235  0.0000  0.0000  0.0000
    11DUM    Ar 2067   1.025   2.735   3.425  0.0000  0.0000  0.0000
    11DUM    Ar 2068   0.835   2.925   3.425  0.0000  0.0000  0.0000
    11DUM    Ar 2069   1.215   2.735   3.235  0.0000  0.0000  0.0000
    11DUM    Ar 2070   1.405   2.925   3.235  0.0000  0.0000  0.0000
    11DUM    Ar 2071   1.405   2.735   3.425  0.0000  0.0000  0.0000
    11DUM    Ar 2072   1.215   2.925   3.425  0.0000  0.0000  0.0000
    11DUM    Ar 2073   1.595   2.735   3.235  0.0000  0.0000  0.0000
    11DUM    Ar 2074   1.785   2.925   3.235  0.0000  0.0000  0.0000
    11DUM    Ar 2075   1.785   2.735   3.425  0.0000  0.0000  0.0000
    11DUM    Ar 2076   1.595   2.925   3.425  0.0000  0.0000  0.0000
    11DUM    Ar 2077   1.975   2.735   3.235  0.0000  0.0000  0.0000
    11DUM    Ar 2078   2.165   2.925   3.235  0.0000  0.0000  0.0000
    11DUM    Ar 2079   2.165   2.735   3.425  0.0000  0.0000  0.0000
    11DUM    Ar 2080   1.975   2.925   3.425  0.0000  0.0000  0.0000
    11DUM    Ar 2081   2.355   2.735   3.235  0.0000  0.0000  0.0000
    11DUM    Ar 2082   2.545   2.925   3.235  0.0000  0.0000  0.0000
    11DUM    Ar 2083   2.545   2.735   3.425  0.0000  0.0000  0.0000
    11DUM    Ar 2084   2.355   2.925   3.425  0.0000  0.0000  0.0000
    11DUM    Ar 2085   2.735   2.735   3.235  0.0000  0.0000  0.0000
    11DUM    Ar 2086   2.925   2.925   3.235  0.0000  0.0000  0.0000
    11DUM    Ar 2087   2.925   2.735   3.425  0.0000  0.0000  0.0000
    11DUM    Ar 2088   2.735   2.925   3.425  0.0000  0.0000  0.0000
    11DUM    Ar 2089   0.075   0.075   3.615  0.0000  0.0000  0.0000
    11DUM    Ar 2090   0.265   0.265   3.615  0.0000  0.0000  0.0000
    11DUM    Ar 2091   0.265   0.075   3.805  0.0000  0.0000  0.0000
    11DUM    Ar 2092   0.075   0.265   3.805  0.0000  0.0000  0.0000
    11DUM    Ar 2093   0.455   0.075   3.615  0.0000  0.0000  0.0000
    11DUM    Ar 2094   0.645   0.265   3.615  0.0000  0.0000  0.0000
    11DUM    Ar 2095   0.645   0.075   3.805  0.0000  0.0000  0.0000
    11DUM    Ar 2096   0.455   0.265   3.805  0.0000  0.0000  0.0000
    11DUM    Ar 2097   0.835   0.075   3.615  0.0000  0.0000  0.0000
    11DUM    Ar 2098   1.025   0.265   3.615  0.0000  0.0000  0.0000
    11DUM    Ar 2099   1.025   0.075   3.805  0.0000  0.0000  0.0000
    11DUM    Ar 2100   0.835   0.265   3.805  0.0000  0.0000  0.0000
    11DUM    Ar 2101   1.215   0.075   3.615  0.0000  0.0000  0.0000
    11DUM    Ar 2102   1.405   0.265   3.615  0.0000  0.0000  0.0000
    11DUM    Ar 2103   1.405   0.075   3.805  0.0000  0.0000  0.0000
    11DUM    Ar 2104   1.215   0.265   3.805  0.0000  0.0000  0.0000
    11DUM    Ar 2105   1.595   0.075   3.615  0.0000  0.0000  0.0000
    11DUM    Ar 2106   1.785   0.265   3.615  0.0000  0.0000  0.0000
    11DUM    Ar 2107   1.785   0.075   3.805  0.0000  0.0000  0.0000
    11DUM    Ar 2108   1.595   0.265   3.805  0.0000  0.0000  0.0000
    11DUM    Ar 2109   1.975   0.075   3.615  0.0000  0.0000  0.0000
    11DUM    Ar 2110   2.165   0.265   3.615  0.0000  0.0000  0.0000
    11DUM    Ar 2111   2.165   0.075   3.805  0.0000  0.0000  0.0000
    11DUM    Ar 2112   1.975   0.265   3.805  0.0000  0.0000  0.0000
    11DUM    Ar 2113   2.355   0.075   3.615  0.0000  0.0000  0.0000
    11DUM    Ar 2114   2.545   0.265   3.615  0.0000  0.0000  0.0000
    11DUM    Ar 2115   2.545   0.075   3.805  0.0000  0.0000  0.0000
    11DUM    Ar 2116   2.355   0.265   3.805  0.0000  0.0000  0.0000
    11DUM    Ar 2117   2.735   0.075   3.615  0.0000  0.0000  0.0000
    11DUM    Ar 2118   2.925   0.265   3.615  0.0000  0.0000  0.0000
    11DUM    Ar 2119   2.925   0.075   3.805  0.0000  0.0000  0.0000
    11DUM    Ar 2120   2.735   0.265   3.805  0.0000  0.0000  0.0000
    11DUM    Ar 2121   0.075   0.455   3.615  0.0000  0.0000  0.0000
    11DUM    Ar 2122   0.265   0.645   3.615  0.0000  0.0000  0.0000
    11DUM    Ar 2123   0.265   0.455   3.805  0.0000  0.0000  0.0000
    11DUM    Ar 2124   0.075   0.645   3.805  0.0000  0.0000  0.0000
    11DUM    Ar 2125   0.455   0.455   3.615  0.0000  0.0000  0.0000
    11DUM    Ar 2126   0.645   0.645   3.615  0.0000  0.0000  0.0000
    11DUM    Ar 2127   0.645   0.455   3.805  0.0000  0.0000  0.0000
    11DUM    Ar 2128   0.455   0.645   3.805  0.0000  0.0000  0.0000
    11DUM    Ar 2129   0.835   0.455   3.615  0.0000  0.0000  0.0000
    11DUM    Ar 2130   1.025   0.645   3.615  0.0000  0.0000  0.0000
    11DUM    Ar 2131   1.025   0.455   3.805  0.0000  0.0000  0.0000
    11DUM    Ar 2132   0.835   0.645   3.805  0.0000  0.0000  0.0000
    11DUM    Ar 2133   1.215   0.455   3.615  0.0000  0.0000  0.0000
    11DUM    Ar 2134   1.405   0.645   3.615  0.0000  0.0000  0.0000
    11DUM    Ar 2135   1.405   0.455   3.805  0.0000  0.0000  0.0000
    11DUM    Ar 2136   1.215   0.645   3.805  0.0000  0.0000  0.0000
    11DUM    Ar 2137   1.595   0.455   3.615  0.0000  0.0000  0.0000
    11DUM    Ar 2138   1.785   0.645   3.615  0.0000  0.0000  0.0000
    11DUM    Ar 2139   1.785   0.455   3.805  0.0000  0.0000  0.0000
    11DUM    Ar 2140   1.595   0.645   3.805  0.0000  0.0000  0.0000
    11DUM    Ar 2141   1.975   0.455   3.615  0.0000  0.0000  0.0000
    11DUM    Ar 2142   2.165   0.645   3.615  0.0000  0.0000  0.0000
    11DUM    Ar 2143   2.165   0.455   3.805  0.0000  0.0000  0.0000
    11DUM    Ar 2144   1.975   0.645   3.805  0.0000  0.0000  0.0000
    11DUM    Ar 2145   2.355   0.455   3.615  0.0000  0.0000  0.0000
    11DUM    Ar 2146   2.545   0.645   3.615  0.0000  0.0000  0.0000
    11DUM    Ar 2147   2.545   0.455   3.805  0.0000  0.0000  0.0000
    11DUM    Ar 2148   2.355   0.645   3.805  0.0000  0.0000  0.0000
    11DUM    Ar 2149   2.735   0.455   3.615  0.0000  0.0000  0.0000
    11DUM    Ar 2150   2.925   0.645   3.615  0.0000  0.0000  0.0000
    11DUM    Ar 2151   2.925   0.455   3.805  0.0000  0.0000  0.0000
    11DUM    Ar 2152   2.735   0.645   3.805  0.0000  0.0000  0.0000
    11DUM    Ar 2153   0.075   0.835   3.615  0.0000  0.0000  0.0000
    11DUM    Ar 2154   0.265   1.025   3.615  0.0000  0.0000  0.0000
    11DUM    Ar 2155   0.265   0.835   3.805  0.0000  0.0000  0.0000
    11DUM    Ar 2156   0.075   1.025   3.805  0.0000  0.0000  0.0000
    11DUM    Ar 2157   0.455   0.835   3.615  0.0000  0.0000  0.0000
    11DUM    Ar 2158   0.645   1.025   3.615  0.0000  0.0000  0.0000
    11DUM    Ar 2159   0.645   0.835   3.805  0.0000  0.0000  0.0000
    11DUM    Ar 2160   0.455   1.025   3.805  0.0000  0.0000  0.0000
    11DUM    Ar 2161   0.835   0.835   3.615  0.0000  0.0000  0.0000
    11DUM    Ar 2162   1.025   1.025   3.615  0.0000  0.0000  0.0000
    11DUM    Ar 2163   1.025   0.835   3.805  0.0000  0.0000  0.0000
    11DUM    Ar 2164   0.835   1.025   3.805  0.0000  0.0000  0.0000
    11DUM    Ar 2165   1.215   0.835   3.615  0.0000  0.0000  0.0000
    11DUM    Ar 2166   1.405   0.835   3.805  0.0000  0.0000  0.0000
    11DUM    Ar 2167   1.215   1.025   3.805  0.0000  0.0000  0.0000
    11DUM    Ar 2168   1.595   0.835   3.615  0.0000  0.0000  0.0000
    11DUM    Ar 2169   1.785   1.025   3.615  0.0000  0.0000  0.0000
    11DUM    Ar 2170   1.785   0.835   3.805  0.0000  0.0000  0.0000
    11DUM    Ar 2171   1.975   0.835   3.615  0.0000  0.0000  0.0000
    11DUM    Ar 2172   2.165   1.025   3.615  0.0000  0.0000  0.0000
    11DUM    Ar 2173   2.165   0.835   3.805  0.0000  0.0000  0.0000
    11DUM    Ar 2174   1.975   1.025   3.805  0.0000  0.0000  0.0000
    11DUM    Ar 2175   2.355   0.835   3.615  0.0000  0.0000  0.0000
    11DUM    Ar 2176   2.545   1.025   3.615  0.0000  0.0000  0.0000
    11DUM    Ar 2177   2.545   0.835   3.805  0.0000  0.0000  0.0000
    11DUM    Ar 2178   2.355   1.025   3.805  0.0000  0.0000  0.0000
    11DUM    Ar 2179   2.735   0.835   3.615  0.0000  0.0000  0.0000
    11DUM    Ar 2180   2.925   1.025   3.615  0.0000  0.0000  0.0000
    11DUM    Ar 2181   2.925   0.835   3.805  0.0000  0.0000  0.0000
    11DUM    Ar 2182   2.735   1.025   3.805  0.0000  0.0000  0.0000
    11DUM    Ar 2183   0.075   1.215   3.615  0.0000  0.0000  0.0000
    11DUM    Ar 2184   0.265   1.405   3.615  0.0000  0.0000  0.0000
    11DUM    Ar 2185   0.265   1.215   3.805  0.0000  0.0000  0.0000
    11DUM    Ar 2186   0.075   1.405   3.805  0.0000  0.0000  0.0000
    11DUM    Ar 2187   0.455   1.215   3.615  0.0000  0.0000  0.0000
    11DUM    Ar 2188   0.645   1.405   3.615  0.0000  0.0000  0.0000
    11DUM    Ar 2189   0.645   1.215   3.805  0.0000  0.0000  0.0000
    11DUM    Ar 2190   0.455   1.405   3.805  0.0000  0.0000  0.0000
    11DUM    Ar 2191   0.835   1.215   3.615  0.0000  0.0000  0.0000
    11DUM    Ar 2192   1.025   1.215   3.805  0.0000  0.0000  0.0000
    11DUM    Ar 2193   0.835   1.405   3.805  0.0000  0.0000  0.0000
    11DUM    Ar 2194   1.975   1.215   3.615  0.0000  0.0000  0.0000
    11DUM    Ar 2195   2.165   1.405   3.615  0.0000  0.0000  0.0000
    11DUM    Ar 2196   2.165   1.215   3.805  0.0000  0.0000  0.0000
    11DUM    Ar 2197   2.355   1.215   3.615  0.0000  0.0000  0.0000
    11DUM    Ar 2198   2.545   1.405   3.615  0.0000  0.0000  0.0000
    11DUM    Ar 2199   2.545   1.215   3.805  0.0000  0.0000  0.0000
    11DUM    Ar 2200   2.355   1.405   3.805  0.0000  0.0000  0.0000
    11DUM    Ar 2201   2.735   1.215   3.615  0.0000  0.0000  0.0000
    11DUM    Ar 2202   2.925   1.405   3.615  0.0000  0.0000  0.0000
    11DUM    Ar 2203   2.925   1.215   3.805  0.0000  0.0000  0.0000
    11DUM    Ar 2204   2.735   1.405   3.805  0.0000  0.0000  0.0000
    11DUM    Ar 2205   0.075   1.595   3.615  0.0000  0.0000  0.0000
    11DUM    Ar 2206   0.265   1.785   3.615  0.0000  0.0000  0.0000
    11DUM    Ar 2207   0.265   1.595   3.805  0.0000  0.0000  0.0000
    11DUM    Ar 2208   0.075   1.785   3.805  0.0000  0.0000  0.0000
    11DUM    Ar 2209   0.455   1.595   3.615  0.0000  0.0000  0.0000
    11DUM    Ar 2210   0.645   1.785   3.615  0.0000  0.0000  0.0000
    11DUM    Ar 2211   0.645   1.595   3.805  0.0000  0.0000  0.0000
    11DUM    Ar 2212   0.455   1.785   3.805  0.0000  0.0000  0.0000
    11DUM    Ar 2213   0.835   1.595   3.615  0.0000  0.0000  0.0000
    11DUM    Ar 2214   1.025   1.785   3.615  0.0000  0.0000  0.0000
    11DUM    Ar 2215   0.835   1.785   3.805  0.0000  0.0000  0.0000
    11DUM    Ar 2216   2.165   1.785   3.615  0.0000  0.0000  0.0000
    11DUM    Ar 2217   2.165   1.595   3.805  0.0000  0.0000  0.0000
    11DUM    Ar 2218   1.975   1.785   3.805  0.0000  0.0000  0.0000
    11DUM    Ar 2219   2.355   1.595   3.615  0.0000  0.0000  0.0000
    11DUM    Ar 2220   2.545   1.785   3.615  0.0000  0.0000  0.0000
    11DUM    Ar 2221   2.545   1.595   3.805  0.0000  0.0000  0.0000
    11DUM    Ar 2222   2.355   1.785   3.805  0.0000  0.0000  0.0000
    11DUM    Ar 2223   2.735   1.595   3.615  0.0000  0.0000  0.0000
    11DUM    Ar 2224   2.925   1.785   3.615  0.0000  0.0000  0.0000
    11DUM    Ar 2225   2.925   1.595   3.805  0.0000  0.0000  0.0000
    11DUM    Ar 2226   2.735   1.785   3.805  0.0000  0.0000  0.0000
    11DUM    Ar 2227   0.075   1.975   3.615  0.0000  0.0000  0.0000
    11DUM    Ar 2228   0.265   2.165   3.615  0.0000  0.0000  0.0000
    11DUM    Ar 2229   0.265   1.975   3.805  0.0000  0.0000  0.0000
    11DUM    Ar 2230   0.075   2.165   3.805  0.0000  0.0000  0.0000
    11DUM    Ar 2231   0.455   1.975   3.615  0.0000  0.0000  0.0000
    11DUM    Ar 2232   0.645   2.165   3.615  0.0000  0.0000  0.0000
    11DUM    Ar 2233   0.645   1.975   3.805  0.0000  0.0000  0.0000
    11DUM    Ar 2234   0.455   2.165   3.805  0.0000  0.0000  0.0000
    11DUM    Ar 2235   0.835   1.975   3.615  0.0000  0.0000  0.0000
    11DUM    Ar 2236   1.025   2.165   3.615  0.0000  0.0000  0.0000
    11DUM    Ar 2237   1.025   1.975   3.805  0.0000  0.0000  0.0000
    11DUM    Ar 2238   0.835   2.165   3.805  0.0000  0.0000  0.0000
    11DUM    Ar 2239   1.215   1.975   3.615  0.0000  0.0000  0.0000
    11DUM    Ar 2240   1.405   2.165   3.615  0.0000  0.0000  0.0000
    11DUM    Ar 2241   1.215   2.165   3.805  0.0000  0.0000  0.0000
    11DUM    Ar 2242   1.785   2.165   3.615  0.0000  0.0000  0.0000
    11DUM    Ar 2243   1.785   1.975   3.805  0.0000  0.0000  0.0000
    11DUM    Ar 2244   1.595   2.165   3.805  0.0000  0.0000  0.0000
    11DUM    Ar 2245   1.975   1.975   3.615  0.0000  0.0000  0.0000
    11DUM    Ar 2246   2.165   2.165   3.615  0.0000  0.0000  0.0000
    11DUM    Ar 2247   2.165   1.975   3.805  0.0000  0.0000  0.0000
    11DUM    Ar 2248   1.975   2.165   3.805  0.0000  0.0000  0.0000
    11DUM    Ar 2249   2.355   1.975   3.615  0.0000  0.0000  0.0000
    11DUM    Ar 2250   2.545   2.165   3.615  0.0000  0.0000  0.0000
    11DUM    Ar 2251   2.545   1.975   3.805  0.0000  0.0000  0.0000
    11DUM    Ar 2252   2.355   2.165   3.805  0.0000  0.0000  0.0000
    11DUM    Ar 2253   2.735   1.975   3.615  0.0000  0.0000  0.0000
    11DUM    Ar 2254   2.925   2.165   3.615  0.0000  0.0000  0.0000
    11DUM    Ar 2255   2.925   1.975   3.805  0.0000  0.0000  0.0000
    11DUM    Ar 2256   2.735   2.165   3.805  0.0000  0.0000  0.0000
    11DUM    Ar 2257   0.075   2.355   3.615  0.0000  0.0000  0.0000
    11DUM    Ar 2258   0.265   2.545   3.615  0.0000  0.0000  0.0000
    11DUM    Ar 2259   0.265   2.355   3.805  0.0000  0.0000  0.0000
    11DUM    Ar 2260   0.075   2.545   3.805  0.0000  0.0000  0.0000
    11DUM    Ar 2261   0.455   2.355   3.615  0.0000  0.0000  0.0000
    11DUM    Ar 2262   0.645   2.545   3.615  0.0000  0.0000  0.0000
    11DUM    Ar 2263   0.645   2.355   3.805  0.0000  0.0000  0.0000
    11DUM    Ar 2264   0.455   2.545   3.805  0.0000  0.0000  0.0000
    11DUM    Ar 2265   0.835   2.355   3.615  0.0000  0.0000  0.0000
    11DUM    Ar 2266   1.025   2.545   3.615  0.0000  0.0000  0.0000
    11DUM    Ar 2267   1.025   2.355   3.805  0.0000  0.0000  0.0000
    11DUM    Ar 2268   0.835   2.545   3.805  0.0000  0.0000  0.0000
    11DUM    Ar 2269   1.215   2.355   3.615  0.0000  0.0000  0.0000
    11DUM    Ar 2270   1.405   2.545   3.615  0.0000  0.0000  0.0000
    11DUM    Ar 2271   1.405   2.355   3.805  0.0000  0.0000  0.0000
    11DUM    Ar 2272   1.215   2.545   3.805  0.0000  0.0000  0.0000
    11DUM    Ar 2273   1.595   2.355   3.615  0.0000  0.0000  0.0000
    11DUM    Ar 2274   1.785   2.545   3.615  0.0000  0.0000  0.0000
    11DUM    Ar 2275   1.785   2.355   3.805  0.0000  0.0000  0.0000
    11DUM    Ar 2276   1.595   2.545   3.805  0.0000  0.0000  0.0000
    11DUM    Ar 2277   1.975   2.355   3.615  0.0000  0.0000  0.0000
    11DUM    Ar 2278   2.165   2.545   3.615  0.0000  0.0000  0.0000
    11DUM    Ar 2279   2.165   2.355   3.805  0.0000  0.0000  0.0000
    11DUM    Ar 2280   1.975   2.545   3.805  0.0000  0.0000  0.0000
    11DUM    Ar 2281   2.355   2.355   3.615  0.0000  0.0000  0.0000
    11DUM    Ar 2282   2.545   2.545   3.615  0.0000  0.0000  0.0000
    11DUM    Ar 2283   2.545   2.355   3.805  0.0000  0.0000  0.0000
    11DUM    Ar 2284   2.355   2.545   3.805  0.0000  0.0000  0.0000
    11DUM    Ar 2285   2.735   2.355   3.615  0.0000  0.0000  0.0000
    11DUM    Ar 2286   2.925   2.545   3.615  0.0000  0.0000  0.0000
    11DUM    Ar 2287   2.925   2.355   3.805  0.0000  0.0000  0.0000
    11DUM    Ar 2288   2.735   2.545   3.805  0.0000  0.0000  0.0000
    11DUM    Ar 2289   0.075   2.735   3.615  0.0000  0.0000  0.0000
    11DUM    Ar 2290   0.265   2.925   3.615  0.0000  0.0000  0.0000
    11DUM    Ar 2291   0.265   2.735   3.805  0.0000  0.0000  0.0000
    11DUM    Ar 2292   0.075   2.925   3.805  0.0000  0.0000  0.0000
    11DUM    Ar 2293   0.455   2.735   3.615  0.0000  0.0000  0.0000
    11DUM    Ar 2294   0.645   2.925   3.615  0.0000  0.0000  0.0000
    11DUM    Ar 2295   0.645   2.735   3.805  0.0000  0.0000  0.0000
    11DUM    Ar 2296   0.455   2.925   3.805  0.0000  0.0000  0.0000
    11DUM    Ar 2297   0.835   2.735   3.615  0.0000  0.0000  0.0000
    11DUM    Ar 2298   1.025   2.925   3.615  0.0000  0.0000  0.0000
    11DUM    Ar 2299   1.025   2.735   3.805  0.0000  0.0000  0.0000
    11DUM    Ar 2300   0.835   2.925   3.805  0.0000  0.0000  0.0000
    11DUM    Ar 2301   1.215   2.735   3.615  0.0000  0.0000  0.0000
    11DUM    Ar 2302   1.405   2.925   3.615  0.0000  0.0000  0.0000
    11DUM    Ar 2303   1.405   2.735   3.805  0.0000  0.0000  0.0000
    11DUM    Ar 2304   1.215   2.925   3.805  0.0000  0.0000  0.0000
    11DUM    Ar 2305   1.595   2.735   3.615  0.0000  0.0000  0.0000
    11DUM    Ar 2306   1.785   2.925   3.615  0.0000  0.0000  0.0000
    11DUM    Ar 2307   1.785   2.735   3.805  0.0000  0.0000  0.0000
    11DUM    Ar 2308   1.595   2.925   3.805  0.0000  0.0000  0.0000
    11DUM    Ar 2309   1.975   2.735   3.615  0.0000  0.0000  0.0000
    11DUM    Ar 2310   2.165   2.925   3.615  0.0000  0.0000  0.0000
    11DUM    Ar 2311   2.165   2.735   3.805  0.0000  0.0000  0.0000
    11DUM    Ar 2312   1.975   2.925   3.805  0.0000  0.0000  0.0000
    11DUM    Ar 2313   2.355   2.735   3.615  0.0000  0.0000  0.0000
    11DUM    Ar 2314   2.545   2.925   3.615  0.0000  0.0000  0.0000
    11DUM    Ar 2315   2.545   2.735   3.805  0.0000  0.0000  0.0000
    11DUM    Ar 2316   2.355   2.925   3.805  0.0000  0.0000  0.0000
    11DUM    Ar 2317   2.735   2.735   3.615  0.0000  0.0000  0.0000
    11DUM    Ar 2318   2.925   2.925   3.615  0.0000  0.0000  0.0000
    11DUM    Ar 2319   2.925   2.735   3.805  0.0000  0.0000  0.0000
    11DUM    Ar 2320   2.735   2.925   3.805  0.0000  0.0000  0.0000
   3.00000   3.00000   4.00000   0.00000   0.00000   0.00000   0.00000   0.00000   0.00000
